/*--------------------------------*- C++ -*----------------------------------*\
| =========                 |                                                 |
| \\      /  F ield         | OpenFOAM: The Open Source CFD Toolbox           |
|  \\    /   O peration     | Version:  4.0                                   |
|   \\  /    A nd           | Web:      www.OpenFOAM.org                      |
|    \\/     M anipulation  |                                                 |
\*---------------------------------------------------------------------------*/
FoamFile
{
    version     2.0;
    format      ascii;
    class       volScalarField;
    location    "9";
    object      p;
}
// * * * * * * * * * * * * * * * * * * * * * * * * * * * * * * * * * * * * * //

dimensions      [0 2 -2 0 0 0 0];

internalField   nonuniform List<scalar> 
918
(
8.05175
15.7498
0.150439
8.07087
-0.0156827
15.702
-14.1229
14.3008
7.96185
-2.55363
-0.586547
8.64918
15.4618
15.1571
5.08255
-0.0285107
13.1825
-9.84747
7.97592
-0.411336
15.9824
7.98979
8.00158
7.95262
10.3995
16.0249
15.2582
-0.161553
0.0159424
-0.183595
-0.0124436
-0.0744042
-0.0599756
15.5056
15.5926
15.6294
7.69424
6.5298
-11.3097
-12.9279
-10.647
-14.3706
13.9187
14.0439
-7.77518
14.2508
14.5511
7.86652
7.96114
7.96726
7.96327
7.96241
7.96809
2.84956
-2.78074
-3.53505
-2.02717
-1.82825
0.432925
-0.631016
-0.741717
-0.502803
-0.471374
7.00541
8.51777
8.41405
8.78578
9.02444
15.6492
15.603
15.646
15.5036
15.5314
15.4243
15.3786
15.1458
15.1671
15.1661
15.2624
2.80005
-2.29438
7.99702
9.42606
-0.00670252
-0.0245613
-0.00652545
12.7682
12.8503
12.9505
13.2761
7.82377
-9.68567
-12.9525
7.98304
7.97758
8.00456
8.01074
7.98669
7.98564
-0.355932
-0.365748
-0.428848
-0.388989
-0.433202
15.6019
15.4419
7.94871
7.93284
9.26688
9.94601
9.59854
3.3335
10.7115
11.4715
14.1526
15.3392
15.6265
15.5172
15.2052
15.1168
15.3306
15.3667
0.279922
0.0638435
-0.0442724
-0.0528188
-0.0450346
7.65209
7.58336
7.98698
7.73086
7.75771
5.93363
5.05593
7.06197
7.50312
-9.06328
-11.0837
-11.1227
-11.3172
-14.3991
8.79319
13.725
13.7494
-7.42302
-5.48378
-8.96496
-5.03297
-6.61486
7.79121
7.8461
7.81253
7.91853
7.8842
7.89878
7.98967
7.97111
7.98136
3.21126
4.09552
2.28042
2.03948
-6.38189
-3.79582
-6.08996
-1.47264
-1.28538
0.52777
0.686397
0.316417
0.246677
-1.03491
-0.784627
-0.944741
-0.40981
-0.405882
6.85689
6.62031
7.17286
7.27893
8.09602
8.15066
8.30507
8.23048
15.3042
15.3283
15.345
15.3037
-7.71515
-21.1793
11.2184
12.0022
-0.00378764
-0.00505741
0.0109046
-0.000286191
-0.0190333
-0.00907991
0.0341283
0.0213135
0.0106125
0.035852
12.4153
12.485
7.70697
8.30625
7.10737
6.9983
7.94707
7.94681
7.9648
7.94963
-0.376556
-0.348945
-0.381756
14.5856
15.105
14.9831
2.4248
0.177307
4.46489
5.05516
12.2146
11.6977
12.1922
14.4826
14.6355
15.3673
15.4038
15.4043
15.4224
15.4957
15.5252
15.4635
7.38039
7.53146
7.44995
7.9524
7.97193
7.96211
8.04458
8.00185
8.01666
4.48363
3.30641
8.41932
8.1064
7.7066
8.05207
8.58035
8.92131
13.2303
13.3562
13.5648
-3.54362
-4.87281
1.72767
1.51536
5.7173
6.39122
6.03473
15.2567
15.1925
15.2687
15.2279
15.1767
15.2096
3.42508
-3.47223
-0.0133195
13.8876
12.8732
13.3695
0.153447
0.0558497
0.115286
8.15945
8.70075
4.54852
5.99504
5.66523
14.9176
15.0445
15.054
14.8287
14.9315
15.1161
15.1171
8.53518
8.36143
8.68746
8.6494
8.88732
-0.674139
-2.6033
-3.13514
0.794715
1.21048
1.01587
8.50328
8.58565
8.82826
7.93641
7.94403
0.0704368
0.0772211
7.98326
7.98407
-0.039191
-0.0443055
13.1184
6.15512
0.266971
7.9474
7.83271
7.95498
-2.07646
2.53658
-0.544394
0.390299
0.0558012
8.47704
7.23529
6.5205
-0.0391133
-0.048167
-0.313481
-5.28898
7.92394
7.9132
7.95016
7.94963
7.95766
-0.0621099
-0.0336923
-0.0292075
-0.264773
-0.222646
-0.315788
7.65499
8.00015
-4.5545
7.95555
7.97023
7.96593
7.95266
7.97574
7.97322
-0.0329064
-0.0426378
-0.0562902
2.17121
4.91987
15.0188
16.1712
14.2054
12.8879
11.5512
14.1046
14.6756
13.8568
15.0909
13.1994
13.6027
1.48817
-1.58546
1.7906
0.400544
7.93358
7.93686
7.82151
7.79491
7.93023
7.92456
7.94618
7.94211
7.95938
7.95974
-1.27078
-1.62026
-2.32954
-3.2527
2.76182
3.91184
1.8472
1.91719
1.04036
-0.460786
-0.446
-0.516954
-0.64304
0.0565583
0.0338803
0.256987
0.250286
0.0772102
0.0254725
-0.0497456
0.0265316
0.0920956
8.3095
8.26272
8.49492
8.68553
7.38006
7.41716
6.87572
7.22498
6.97665
5.73319
6.48999
5.98794
-0.0535871
-0.0557385
-0.0403068
-0.0422811
-0.0254334
-0.107067
-0.102482
-0.162053
-0.146476
-0.0973701
-0.301166
-0.334611
-4.65156
-6.53417
7.33746
6.28216
2.99991
7.85926
7.89715
7.8765
7.92353
7.93873
7.9374
7.92028
7.9002
7.96864
7.96126
7.99538
8.03291
-3.01753
-6.09073
-2.89909
-4.42677
6.43871
11.8023
5.21908
4.02628
3.70737
8.83501
13.7578
14.7272
16.4299
16.2177
8.33378
10.5394
8.97403
11.2377
9.93268
14.6543
14.987
15.1804
14.9517
14.5524
4.72406
9.11006
-3.36378
-2.44255
1.28809
-0.891402
14.9847
12.7772
12.7786
13.3798
13.9542
12.8764
12.4848
12.4321
13.0821
13.155
8.51474
3.05689
2.27633
1.16667
12.2256
9.53014
10.829
8.95686
7.94542
7.93751
7.94248
7.71026
7.77655
7.73193
7.87809
7.92336
7.91251
7.92482
7.88968
7.89531
-1.35029
-1.29538
-1.69715
-3.29217
-3.29182
-4.21009
-2.44459
0.547667
0.140664
2.70813
3.78913
-0.156251
-1.92245
-1.73588
-0.330682
1.20682
1.3222
0.551386
1.22304
1.27031
0.993287
1.60355
1.6015
-0.239791
-0.0975511
-0.382619
-0.332526
0.391301
0.678606
0.649688
0.00276217
-0.0447149
-0.381429
-0.378105
0.0719321
-0.223294
-0.0156368
-0.10216
-0.0928632
-0.051722
-0.0451058
-0.0528698
0.036747
0.0179318
8.06206
8.15847
8.12486
8.63443
8.82805
9.18224
8.59945
7.63743
7.5347
7.56609
7.2236
7.37816
7.35193
7.62286
7.99029
8.11357
7.87912
7.94276
7.80495
7.79398
7.56691
7.667
7.22987
6.8671
6.65808
-0.0907736
-0.0666027
-0.06403
-0.0985105
-0.0532379
-0.067273
0.020426
0.00885308
0.0157817
-0.00084316
-0.0135394
-0.146807
-0.130074
-2.34653
-0.498908
-5.24812
-5.52948
-7.14416
7.11972
8.08347
6.08342
4.90572
5.14134
6.4965
6.98775
4.18968
5.35143
5.37346
8.22429
8.0576
7.90071
7.89182
7.87855
7.87921
7.89058
-1.11239
0.912702
0.160951
1.68835
6.5887
7.12231
4.33371
4.63627
5.48645
5.31414
11.4732
11.808
10.5836
11.285
11.2225
6.91046
8.83604
10.0106
8.9682
10.0598
10.6928
9.67254
10.5502
9.01451
8.11687
8.07219
6.60035
7.40777
6.89268
6.3197
8.2993
7.86364
8.04946
7.93788
8.34189
9.28029
9.09614
9.4329
9.87465
8.14863
7.20811
7.57975
8.13441
7.12644
7.39166
7.78825
4.18984
5.04207
5.43704
4.68804
5.83831
5.19854
5.2907
4.81609
5.43483
3.78187
3.84911
1.74826
7.70415
13.8073
14.6543
15.0739
14.0174
13.6181
13.7951
14.4745
14.5377
12.1715
12.429
12.6767
11.4763
12.202
12.818
12.7634
8.34634
6.22737
6.19261
4.95993
1.85087
2.80589
7.15461
5.54096
3.76917
3.65724
7.80124
4.93495
6.54936
7.89786
6.49313
4.95748
10.0578
11.4719
11.2635
10.6315
8.50785
8.84904
9.32238
10.2123
10.919
11.6936
7.79803
7.8688
7.86336
7.83406
7.84886
7.88854
7.91302
7.928
7.90223
7.9252
7.93296
-0.644067
-0.520232
-1.00261
-0.875684
-0.408342
-0.698825
-0.445374
-0.766379
-0.452708
-0.387463
-0.581481
-0.984137
-0.889786
-0.640781
1.10164
1.41704
1.31921
0.602589
2.25567
3.36313
4.02616
3.33255
1.87117
2.2014
2.52908
0.205647
0.357584
0.229522
0.455147
0.372751
-0.355346
-0.340337
-0.252424
-0.145624
-0.234197
-0.256318
-0.3288
-0.279399
-0.304394
-0.346768
-0.353466
7.66873
7.59993
7.71027
7.60216
7.54996
7.79548
7.82057
7.88454
7.95203
8.02197
7.88646
8.00716
8.05394
-0.095614
-0.161039
-0.139014
-0.230355
-0.169742
-0.178134
-0.227098
2.79236
0.677471
1.93431
0.0198324
-3.26652
-1.85703
6.33789
7.69202
8.12072
7.62075
6.51199
6.71963
7.83598
8.21476
4.24713
5.53797
4.75652
7.64675
7.4848
8.20241
5.82188
3.57332
5.90492
6.36638
4.41076
5.24435
4.83009
2.43321
3.04735
3.9555
5.456
5.83803
5.35928
5.06978
4.84518
6.04636
5.71858
6.94329
7.59057
3.61713
3.28538
2.1376
11.4328
11.8827
12.2437
11.535
11.9512
10.0938
9.99271
10.4557
10.6826
10.3364
3.30571
3.72562
2.5672
6.16685
7.045
8.10479
7.01217
12.0306
10.9493
13.3526
13.1517
11.9172
10.9473
10.9772
12.0505
5.01364
7.72626
6.91951
7.37928
5.59927
3.78069
10.6023
10.5699
11.3373
11.9284
11.1633
11.8408
7.81708
7.83218
7.78437
7.74545
7.74238
7.79428
0.365904
-0.000749932
0.511794
0.181188
-0.211114
-0.216782
-0.129636
-0.197717
-0.197559
-0.16405
-0.0942497
-0.0352558
3.32291
3.50808
0.867306
2.27018
-0.931369
-2.12599
-2.91656
0.100925
1.76853
1.27106
4.70742
6.06073
5.14002
5.74603
4.47502
4.97056
7.69333
7.34485
7.9842
6.45537
6.5907
6.9042
4.6104
5.84446
11.6401
11.0682
9.28738
8.54101
8.50552
10.2572
8.86522
7.79719
8.67379
9.9252
9.83943
5.23708
5.23411
6.11664
6.68933
5.14435
5.59436
5.19916
5.95246
5.5086
)
;

boundaryField
{
    wall-4
    {
        type            zeroGradient;
    }
    velocity-inlet-5
    {
        type            zeroGradient;
    }
    velocity-inlet-6
    {
        type            zeroGradient;
    }
    pressure-outlet-7
    {
        type            fixedValue;
        value           uniform 0;
    }
    wall-8
    {
        type            zeroGradient;
    }
    frontAndBackPlanes
    {
        type            empty;
    }
}


// ************************************************************************* //
