/*--------------------------------*- C++ -*----------------------------------*\
| =========                 |                                                 |
| \\      /  F ield         | OpenFOAM: The Open Source CFD Toolbox           |
|  \\    /   O peration     | Version:  4.0                                   |
|   \\  /    A nd           | Web:      www.OpenFOAM.org                      |
|    \\/     M anipulation  |                                                 |
\*---------------------------------------------------------------------------*/
FoamFile
{
    version     2.0;
    format      ascii;
    class       volScalarField;
    location    "8";
    object      p;
}
// * * * * * * * * * * * * * * * * * * * * * * * * * * * * * * * * * * * * * //

dimensions      [0 2 -2 0 0 0 0];

internalField   nonuniform List<scalar> 
918
(
7.93862
15.8604
0.138229
7.95788
-0.00884469
15.8127
-14.1426
14.1903
7.84864
-2.53466
-0.593557
8.53692
15.5721
15.2743
5.0043
-0.00722484
13.0512
-9.98216
7.86243
-0.303742
16.141
7.87665
7.8885
7.83958
10.2788
16.1849
15.3717
-0.0570022
0.0144575
-0.161344
0.00647553
-0.0439136
-0.0486172
15.6164
15.7033
15.7401
7.58126
6.44076
-11.3201
-12.9337
-10.6346
-14.3797
13.831
14.003
-7.72273
14.1788
14.5898
7.75358
7.84794
7.85415
7.85021
7.8492
7.85505
2.8317
-2.78115
-3.54411
-1.99688
-1.78424
0.436059
-0.631153
-0.741722
-0.487053
-0.461785
6.89543
8.40366
8.2991
8.67522
8.90886
15.7597
15.7137
15.7565
15.6141
15.642
15.5344
15.488
15.2616
15.2835
15.2843
15.3863
2.7075
-2.42536
7.94074
9.39859
-0.00390818
-0.0103174
0.0151935
12.6036
12.6764
12.8756
13.1553
7.80536
-9.64978
-13.2011
7.86932
7.86422
7.89156
7.89775
7.8736
7.87262
-0.274267
-0.302761
-0.370344
-0.284654
-0.331184
15.7015
15.5382
7.83565
7.81965
9.15322
9.83222
9.48961
3.23828
10.5975
11.3556
14.2387
15.4665
15.7683
15.6522
15.3212
15.2294
15.4392
15.4751
0.241558
0.0542844
-0.0227988
-0.053961
-0.0350705
7.53907
7.47019
7.87388
7.61832
7.64518
5.83822
4.95196
6.98693
7.4405
-9.03269
-11.0435
-11.1796
-11.3274
-14.4563
8.80673
13.536
13.5889
-7.4287
-5.44044
-8.94178
-5.01269
-6.58492
7.67849
7.73359
7.70013
7.80539
7.77089
7.78569
7.87664
7.858
7.86827
3.18637
4.05963
2.26281
2.0266
-6.44306
-3.81863
-6.1158
-1.43408
-1.26843
0.519835
0.684927
0.320897
0.247876
-1.01604
-0.780596
-0.943726
-0.403928
-0.399824
6.74775
6.51183
7.06195
7.16835
7.98154
8.03664
8.18996
8.11642
15.4145
15.4399
15.4538
15.4114
-7.8865
-21.436
11.2246
12.028
-0.000343463
0.00232869
0.00882335
0.0223118
-0.0084701
0.000327236
0.0678822
0.0513644
0.0129639
0.0433746
12.3556
12.4497
7.68916
8.28986
7.08346
6.97343
7.83396
7.83379
7.85166
7.83664
-0.352022
-0.306223
-0.339162
14.5903
15.157
15.0629
2.33747
0.090948
4.36322
4.95377
12.0792
11.624
12.0839
14.5782
14.734
15.4783
15.5148
15.5137
15.5323
15.6064
15.6363
15.5742
7.26866
7.41871
7.33769
7.83937
7.85891
7.84892
7.93004
7.88827
7.90237
4.37999
3.19796
8.40958
8.07674
7.65089
8.01487
8.58902
8.92713
13.0486
13.3559
13.4531
-3.50999
-4.85284
1.71283
1.49491
5.61289
6.28252
5.92807
15.3656
15.3096
15.377
15.3422
15.2947
15.3266
3.3225
-3.62014
-0.136046
13.9635
12.9181
13.4307
0.149172
0.0502632
0.0991107
8.15202
8.70171
4.52641
5.9743
5.63133
15.0227
15.1549
15.1643
14.9325
15.0386
15.2311
15.2323
8.54256
8.35526
8.69627
8.65706
8.8938
-0.733101
-2.5797
-3.19156
0.801474
1.18838
1.01305
8.50866
8.58743
8.826
7.8235
7.83094
0.080128
0.123172
7.87021
7.87093
-0.0150323
-0.0296457
13.1613
6.07961
0.257028
7.83437
7.71942
7.84168
-2.08648
2.52383
-0.541509
0.400914
0.0792144
8.36353
7.12238
6.41466
-0.00939801
-0.013071
-0.233259
-5.18678
7.81109
7.80024
7.83671
7.83641
7.84437
-0.0289134
-0.0222661
-0.00952623
-0.196452
-0.14332
-0.21669
7.54307
7.887
-4.5516
7.84229
7.85702
7.85276
7.83928
7.86203
7.85934
0.0237755
-0.0283448
-0.0224179
2.14218
4.81707
15.1264
16.3378
14.2565
12.9163
11.5503
14.1841
14.7769
13.9247
15.2124
12.9845
13.3964
1.4825
-1.58528
1.76241
0.362817
7.82084
7.82401
7.70813
7.68109
7.81737
7.81154
7.83302
7.82888
7.84582
7.84625
-1.28028
-1.6012
-2.34182
-3.2247
2.75928
3.91015
1.83847
1.90267
1.02204
-0.464234
-0.435151
-0.49872
-0.63073
0.0475636
0.0727078
0.281796
0.273239
0.0966839
0.0153208
-0.0593143
0.059816
0.10738
8.19875
8.15092
8.38065
8.57477
7.26722
7.30457
6.76735
7.11296
6.8675
5.62701
6.38915
5.88381
-0.0303273
-0.0212411
-0.0205395
-0.014767
-0.00757016
-0.0849026
-0.0686217
-0.132157
-0.112665
-0.0725298
-0.230713
-0.282846
-4.5875
-6.49639
7.32254
6.2472
2.87617
7.7458
7.78408
7.76297
7.81088
7.8253
7.82399
7.80708
7.78746
7.85546
7.84823
7.88297
7.91973
-3.0278
-6.07296
-2.90758
-4.42587
6.36385
11.5241
5.1237
3.95912
3.63284
8.73011
13.6446
14.7568
16.621
16.3926
8.26187
10.4921
8.91642
11.1292
9.83565
14.7553
15.0973
15.2997
15.0679
14.6505
4.62757
9.02752
-3.36514
-2.45833
1.25384
-0.904165
14.9878
12.6227
12.9168
13.2539
13.9666
12.8956
12.4302
12.4748
13.0176
13.2768
8.44483
3.00976
2.21614
1.10612
12.3097
9.49701
10.8004
8.90058
7.83232
7.82457
7.82949
7.59822
7.6629
7.61909
7.76498
7.81006
7.7993
7.81203
7.77686
7.78211
-1.32068
-1.25309
-1.7157
-3.25837
-3.28562
-4.22335
-2.46635
0.539668
0.146618
2.64321
3.71772
-0.175229
-1.91508
-1.75356
-0.317505
1.19021
1.31029
0.549462
1.20986
1.29764
1.00821
1.60316
1.58383
-0.211066
-0.101948
-0.363552
-0.304916
0.400799
0.67289
0.654296
0.0316935
-0.0136069
-0.39069
-0.376529
0.0708733
-0.221203
-0.0167562
-0.088549
-0.0538113
-0.0196908
-0.016288
-0.0426457
0.04188
0.0379706
7.94945
8.04547
8.01198
8.51064
8.7114
9.06149
8.48189
7.52471
7.4222
7.45382
7.1077
7.26235
7.23171
7.50464
7.87836
8.00275
7.76644
7.83029
7.69172
7.67987
7.44904
7.55288
7.11731
6.76499
6.55415
-0.0629606
-0.0449387
-0.056741
-0.0705416
-0.0289429
-0.0451233
0.0490503
0.0381193
0.0428212
0.0261286
0.0182238
-0.11871
-0.0955691
-2.33382
-0.497078
-5.24781
-5.50206
-7.13735
7.10076
8.08106
6.04692
4.86091
5.10262
6.47141
6.96721
4.17979
5.31519
5.35509
8.2152
8.04469
7.78832
7.77972
7.76591
7.7665
7.7779
-1.15485
0.844436
0.13414
1.61739
6.51666
7.05903
4.25595
4.55392
5.44311
5.27298
11.5013
11.9441
10.4207
11.0273
11.1166
6.80438
8.74011
9.90388
8.86492
9.973
10.6288
9.55821
10.4225
8.90436
8.00226
7.95226
6.49182
7.30579
6.79363
6.22035
8.18885
7.73912
7.93282
7.81284
8.22605
9.14659
8.963
9.31798
9.77323
8.04307
7.10363
7.47914
8.02993
7.02265
7.28742
7.68277
4.12376
4.97259
5.35797
4.58765
5.75979
5.10397
5.19364
4.72971
5.36017
3.67139
3.74561
1.62803
7.64349
13.6852
14.6844
15.0775
14.1112
13.5995
13.722
14.4073
14.5856
12.0389
12.4556
12.4534
11.4194
12.1374
12.7971
12.7241
8.28258
6.19979
6.15676
4.9341
1.8212
2.76781
7.09173
5.50795
3.7508
3.65017
7.71202
4.86241
6.44135
7.82198
6.43443
4.91169
10.003
11.2983
11.1442
10.5563
8.45912
8.8073
9.25934
10.1271
10.8764
11.6986
7.68479
7.7557
7.74981
7.72044
7.73595
7.7755
7.7999
7.81485
7.78959
7.81244
7.82003
-0.636037
-0.52023
-0.95625
-0.84341
-0.402445
-0.71413
-0.417862
-0.759199
-0.449014
-0.372616
-0.573149
-0.959068
-0.867128
-0.647294
1.10737
1.39837
1.29087
0.598517
2.26396
3.40561
3.97971
3.2543
1.88411
2.1997
2.55456
0.21094
0.360823
0.228987
0.460078
0.379528
-0.335694
-0.320594
-0.214237
-0.10433
-0.194655
-0.217709
-0.299298
-0.259178
-0.282774
-0.348999
-0.336743
7.55527
7.48597
7.59486
7.48516
7.43533
7.68243
7.70861
7.77069
7.83816
7.90862
7.77268
7.89505
7.94037
-0.0796464
-0.101399
-0.0879892
-0.19908
-0.119657
-0.147365
-0.187373
2.7687
0.623953
1.831
0.0107553
-3.25003
-1.8518
6.31478
7.6797
8.10668
7.61279
6.49924
6.71745
7.83659
8.21409
4.20903
5.4909
4.68296
7.63128
7.45802
8.19237
5.76573
3.5001
5.81674
6.28941
4.32532
5.14489
4.7878
2.3966
2.99603
3.88902
5.38879
5.7505
5.27103
4.99758
4.75783
5.98106
5.6711
6.88168
7.54648
3.57755
3.24169
2.07922
11.2509
11.6696
11.9408
11.4451
11.9278
9.98584
9.86056
10.3159
10.5842
10.2308
3.18972
3.60908
2.44791
6.07601
6.96489
8.05001
6.94047
11.9411
10.8755
13.3631
13.138
11.8438
10.8571
10.9288
12.001
4.98248
7.68473
6.87188
7.34075
5.55214
3.74243
10.5072
10.5033
11.2673
11.836
11.098
11.8319
7.70456
7.71989
7.67142
7.63271
7.63032
7.68271
0.348093
0.000355041
0.507218
0.189083
-0.179735
-0.197163
-0.131201
-0.174798
-0.160734
-0.123273
-0.0964273
-0.0547838
3.26679
3.42135
0.83467
2.20286
-0.967111
-2.12235
-2.92334
0.0648528
1.69134
1.19229
4.6547
6.00669
5.06181
5.68991
4.4282
4.92317
7.66808
7.31393
7.961
6.43265
6.57553
6.79506
4.49849
5.74004
11.5103
10.9543
9.21445
8.44312
8.43707
10.1642
8.80733
7.75141
8.60126
9.86491
9.75019
5.13723
5.14706
6.00637
6.59967
5.06399
5.51893
5.11528
5.86817
5.42666
)
;

boundaryField
{
    wall-4
    {
        type            zeroGradient;
    }
    velocity-inlet-5
    {
        type            zeroGradient;
    }
    velocity-inlet-6
    {
        type            zeroGradient;
    }
    pressure-outlet-7
    {
        type            fixedValue;
        value           uniform 0;
    }
    wall-8
    {
        type            zeroGradient;
    }
    frontAndBackPlanes
    {
        type            empty;
    }
}


// ************************************************************************* //
