/*--------------------------------*- C++ -*----------------------------------*\
| =========                 |                                                 |
| \\      /  F ield         | OpenFOAM: The Open Source CFD Toolbox           |
|  \\    /   O peration     | Version:  4.0                                   |
|   \\  /    A nd           | Web:      www.OpenFOAM.org                      |
|    \\/     M anipulation  |                                                 |
\*---------------------------------------------------------------------------*/
FoamFile
{
    version     2.0;
    format      ascii;
    class       surfaceScalarField;
    location    "1";
    object      phi;
}
// * * * * * * * * * * * * * * * * * * * * * * * * * * * * * * * * * * * * * //

dimensions      [0 3 -1 0 0 0 0];

internalField   nonuniform List<scalar> 
1300
(
18.7548
9.37738
-23.6411
18.7548
-22.919
9.37738
-23.7699
23.7699
-8.35266
8.35266
9.41008
9.34469
-20.741
20.741
-20.2137
20.2137
-15.3778
15.3778
-8.8163
8.8163
-8.66588
8.66588
9.01364
-9.01364
-19.0139
19.0139
-11.1454
11.1454
-22.6123
22.6123
16.2252
-16.2252
-20.2301
20.2301
-4.16677
4.16677
-2.4271
21.1819
16.3277
16.3277
-14.466
14.466
-7.96826
7.96826
10.32
-10.32
35.2716
-35.2716
-11.6306
-11.7161
4.63015
-28.6762
-18.2888
-18.2888
-14.0662
14.0662
-4.68883
4.68856
16.0965
-16.0965
-7.10604
7.10604
-23.9685
0.198653
-23.9685
23.9162
-0.146325
23.9162
-9.1624
0.809741
-9.1624
21.5018
-21.5018
7.54225
0.810412
7.54225
16.0766
-16.0766
-9.42723
18.8373
9.32753
-9.32128
30.5031
-9.43349
18.7782
-17.9671
17.9671
-21.0693
0.328356
-21.0693
20.4619
0.279118
20.4619
-19.6444
19.6444
-20.239
0.025261
-20.239
20.2406
-0.0268396
20.2406
16.4344
-16.4344
-15.559
0.181178
-15.559
15.2409
0.136914
15.2409
0.508121
8.86926
-9.8855
14.5741
-8.86926
0.0529627
8.91492
-0.0986164
8.91492
-8.73655
0.0706739
-8.73655
8.54239
0.123489
8.54239
9.57441
-0.560761
9.57441
-8.90548
-0.108165
-8.90548
-11.6548
-11.6528
-19.3202
0.306315
-19.3202
-11.1728
0.0273881
-11.1728
10.9146
0.230818
10.9146
-13.8587
13.8587
-23.7911
1.17882
-23.7911
15.9295
0.295689
15.9295
9.36638
9.38839
28.1211
-28.1211
11.8959
-20.2233
-0.00678571
-20.2233
-20.2158
-15.0558
20.2158
0.0142125
-5.38387
1.2171
-5.38387
16.216
0.111644
16.216
15.1115
0.129415
-15.1115
0.645469
18.4867
-18.4867
11.0654
3.40062
11.0654
-9.51684
9.51684
8.33921
0.203184
-8.33921
0.370947
10.1699
0.15009
10.1699
-10.3291
0.0091362
-10.3291
11.8629
-23.579
-11.6217
18.6319
0.381976
-18.6319
0.34308
16.2078
-0.111303
16.2078
-15.8003
15.8003
-16.1246
0.0280689
-16.1246
-6.86408
-0.241962
-6.86408
7.77265
-0.666607
7.77265
-23.0737
-0.894812
-23.0737
-24.012
0.220873
24.012
-0.0957524
10.5454
-10.5454
-9.91027
0.747866
-9.91027
-22.0808
-0.992923
22.0808
-0.579001
-21.4019
-0.0999143
-21.4019
-16.1133
-0.0113555
16.1133
-0.0366499
16.0812
0.134811
-16.0812
0.00460881
-9.37676
18.7651
-9.37801
18.7055
-17.2382
-0.72889
-17.2382
18.2735
-0.306433
18.2735
21.7942
0.818082
-21.7942
0.724866
20.3218
0.140039
20.3218
-19.3458
-0.298612
-19.3458
19.799
-0.154566
19.799
20.2995
0.0223621
-20.2995
0.0604736
20.1465
0.0940876
20.1465
16.6614
-0.226945
16.6614
-16.2075
-0.226884
-16.2075
15.8271
-15.8271
15.7373
0.0897916
-15.7373
0.178347
-18.2725
18.2816
-0.00696999
-18.2655
8.90795
8.90795
9.0752
0.499207
9.0752
-8.9311
0.0256194
-8.9311
11.6585
-23.2802
11.5302
-23.1851
11.8414
-40.5177
11.7725
-23.4253
19.7805
-19.7805
19.6375
0.142934
-19.6375
0.317318
-11.2412
0.0683521
-11.2412
-13.358
-0.500705
-13.358
14.8341
-0.975401
14.8341
-15.8498
15.8498
-15.7876
-0.0622566
15.7876
0.141934
20.0879
0.0585829
-20.0879
-0.135374
6.47312
1.06913
-6.47312
1.08925
19.6311
-1.14439
19.6311
-17.5815
-0.905142
-17.5815
-11.1582
-0.0829219
11.1582
-0.0928737
-9.76563
0.248792
-9.76563
-18.4433
0.177782
-18.5419
-10.1513
-10.1513
3.91486
18.4889
-16.1749
-0.0326122
16.1749
0.032926
15.9235
-0.0736223
-15.9235
0.123173
-15.8456
0.0185159
15.8456
-0.0453455
-6.92634
0.06226
-6.92634
-9.28029
9.28029
-8.54568
-0.734618
8.54568
-0.773027
10.8969
-0.351459
10.8969
10.4674
0.447229
-10.4674
0.557118
-20.5837
-0.81824
-20.5837
18.764
-0.490474
18.764
-17.1125
-0.468996
17.1125
-0.451182
-0.076536
18.3581
-8.83141
0.0948581
8.83141
-18.5082
18.6031
-7.65232
0.725986
7.65232
1.42287
9.22498
0.29186
-9.22498
0.293878
19.9335
-0.134542
-19.9335
0.153068
-12.7621
-0.595911
-12.7621
-16.0137
-1.22444
16.0137
-1.17959
-18.9983
-0.203164
19.2015
-18.8749
9.96879
0.201108
-9.96879
18.8042
-9.96266
-0.58276
9.96266
-0.682366
11.5359
-0.639062
11.5359
20.3819
-0.750834
-20.3819
-0.201747
-19.2284
-0.117443
19.2284
-0.464397
-12.1317
-0.630466
12.1317
-0.595718
-20.9755
21.0871
9.52765
-11.828
-11.751
-26.8838
9.16288
9.60227
21.0588
-24.9417
-15.5759
-24.5986
12.2226
-11.9287
-17.3944
16.8336
36.4722
-36.5721
-28.7179
28.8599
31.7061
-31.7428
9.27621
9.5611
38.2294
-37.9011
-35.9613
35.2325
36.1324
-36.1072
37.3535
-37.6521
-43.3371
43.2025
-28.3549
28.5361
-32.9955
32.7686
-33.2398
32.7887
-11.6979
-11.4871
32.1584
-31.8521
41.5459
-41.5527
-40.7492
41.928
16.4421
4.645
16.5769
-9.44991
18.7261
-9.32826
18.8559
11.5692
-23.2672
11.711
-23.462
21.3356
20.2103
-21.3498
-5.53396
-29.2393
29.1279
-28.8569
28.8116
42.5957
-42.3971
-9.36014
18.9212
-9.3454
18.9477
-16.7928
-11.9251
16.4972
4.56167
19.7078
12.4506
-20.0898
-4.50886
-37.2254
36.4746
-38.83
37.9249
-1.33586
9.72343
-8.38758
6.6324
-2.07933
11.8028
10.1433
10.1689
9.62639
-9.33453
2.30232
-10.6899
-10.319
-12.9424
13.6902
12.8868
-12.0764
28.7463
7.72595
28.1673
-27.1023
-9.46986
-27.9205
19.199
9.66086
19.1368
20.2201
11.486
20.2087
15.1256
-15.147
0.0213341
-15.3585
30.4842
3.77427
-27.2836
-22.7219
24.9687
13.2607
25.2478
-25.9294
-11.9716
-25.2046
-21.4592
-14.5022
-22.6836
22.8978
12.3346
22.5914
-27.9934
27.529
23.8888
12.2436
23.862
-24.2388
-11.8683
-24.1784
36.3334
-9.46924
-26.8641
-24.1329
-19.2042
24.2875
13.0661
26.4087
16.7939
26.5617
12.5984
23.7349
-25.6645
6.4603
-19.015
-9.33997
-18.8366
18.3301
10.206
18.467
-20.769
-12.2265
-20.8016
-20.8836
-12.3563
21.1105
11.6581
-21.1675
-17.6625
21.6365
11.1521
10.5444
-26.1203
12.8809
-24.368
-22.4978
-9.35429
-22.1805
14.0872
9.06366
-23.1508
-9.18
38.176
-17.9657
32.642
-25.7605
-15.7922
-25.8958
-32.0434
-8.70574
-31.8226
-19.0893
18.4934
-19.6206
18.6452
36.4657
-20.5269
-15.9388
-19.0959
-12.6468
19.0913
-2.51435
-18.931
18.9523
-0.20486
18.6511
23.2961
20.7817
-19.2229
-9.63404
-19.0997
19.1035
9.7081
19.122
32.2555
10.3403
32.1091
-30.8834
-11.5137
-31.7782
18.3064
-18.5484
14.9158
-14.9988
25.0973
12.8276
-23.9529
-13.2725
29.1508
-14.1237
-15.0271
-20.8072
20.1303
0.676893
-9.00443
-2.37203
1.79474
-9.8037
-7.5907
9.91187
0.257016
20.3873
12.7966
-9.19232
9.44111
10.0092
10.2124
-0.106576
11.8244
-11.0984
25.7274
-11.3943
-14.3331
25.8043
-26.7972
-5.97396
-25.4143
19.4404
1.37009
8.65034
-7.43324
-10.6423
-2.30006
-10.0852
7.941
4.94579
9.01012
4.97451
8.71572
-14.0652
2.55092
11.5142
-9.09065
-9.52546
-17.4409
-5.28134
22.7222
26.7242
9.75034
-26.5225
-1.39806
14.0438
-13.8129
-3.81392
-13.627
9.79218
-13.6061
-16.3536
-9.32927
25.6829
-16.6587
-2.44099
16.7323
2.40442
-18.7857
-10.4536
18.7576
1.45108
-14.922
30.3323
-15.4103
-24.556
12.8387
17.6454
22.4996
-23.7117
11.9478
11.7639
-6.06632
21.5211
3.72676
21.6611
-32.21
20.2384
27.4358
14.4922
-28.2539
3.04932
-29.1607
33.9365
-29.6339
-4.30259
17.2652
16.6712
18.5971
17.8686
-13.0187
31.6157
-4.60751
-25.0264
33.7682
-19.276
20.7676
-40.0437
-38.6363
13.6099
-23.9436
29.8094
-5.86588
-8.67932
-19.314
32.6229
-2.7869
-29.836
19.8045
-18.8088
-19.0614
37.8702
-28.2781
30.9297
-8.97197
-21.9577
-23.4608
-14.1914
23.5782
3.95074
-34.4273
40.8876
-10.6924
20.7311
3.13093
20.8252
13.662
-20.9573
7.29531
14.6161
-23.5881
8.66359
-29.6208
-17.0048
33.4829
-16.4781
-26.3591
-23.0402
-3.31892
7.10491
33.7827
-23.8988
18.516
5.3828
16.5706
2.55136
-16.6604
-2.1762
1.58621
21.7145
-23.3007
20.0532
20.1826
16.5106
5.20398
19.0414
10.0865
-19.0743
-1.72728
-19.4697
7.11338
-7.81158
-16.6218
23.7352
-18.6853
2.06344
-13.1448
-17.2795
30.4244
-22.4848
15.1825
15.1498
24.8906
-23.5615
6.282
-11.7486
-11.8129
12.4033
-20.2149
9.40259
14.3326
20.5547
2.89221
17.0508
16.4321
-26.1145
1.7465
28.8827
-24.3738
5.66488
20.8969
-24.1809
1.14069
-21.0398
4.06449
-22.0302
-19.0863
22.2468
-30.9525
-17.7969
29.29
2.81916
-29.1942
-2.62833
-13.4247
-5.66454
-14.0552
-5.92375
-13.6968
-18.9424
-4.29581
-14.6466
14.1975
-14.7861
-7.89751
15.9657
2.67948
-15.9341
15.3514
-16.2191
15.58
0.845315
18.107
21.627
8.98017
-12.0407
21.0208
-23.1014
33.4416
-39.4692
16.3678
19.0829
-30.5965
-20.3863
11.5826
6.72381
10.916
20.995
-23.54
2.545
-21.9378
26.3066
-4.36884
-34.1413
12.2035
-13.1463
13.7613
1.15457
13.8296
3.58985
11.5239
-15.1138
-11.4089
-11.5018
-10.8773
-15.7003
26.5777
5.03504
-15.9129
10.8779
-15.7986
20.8337
-0.816433
-15.0965
25.3505
-13.8266
26.5051
-16.6151
9.89004
15.3242
25.9739
-10.6497
20.8107
-7.98309
8.1621
-18.8118
-7.5382
-14.5879
24.794
-15.8364
17.8999
-1.49323
19.3931
-19.3499
5.2262
-2.83937
17.3432
17.9887
20.3144
-15.1104
13.5244
-21.5075
-5.28733
-18.6153
-4.28269
-0.575509
-18.5543
19.1298
17.9799
-18.5554
-8.82956
19.1907
-10.3611
15.4913
-9.72331
-5.76798
-8.91096
-9.63744
8.8487
2.9757
18.467
1.19327
-10.9166
-9.90515
-8.48228
15.172
10.5554
-9.10312
9.78001
7.30838
1.34196
2.94045
6.06967
8.67788
-5.73743
0.274314
8.40356
-7.15892
10.31
3.73377
-10.7572
0.672026
-6.68104
16.4732
4.8332
-9.77899
4.04156
5.28172
-16.676
22.9822
-11.2881
-11.6941
28.2639
5.77704
-17.0652
19.6373
-18.2672
10.5488
-15.8302
-6.51635
-24.7835
-17.0576
-11.4101
22.288
-15.1676
24.9179
5.93433
-23.5199
29.4542
-16.5488
7.21955
-14.2189
17.9527
-4.28485
-9.9341
12.9482
12.7347
-13.7957
0.168717
-0.847488
10.6009
-11.4484
-3.00521
-12.0959
-22.1495
23.6006
-10.3574
22.3052
10.6635
-9.67094
31.9762
8.8692
-18.5401
-15.6868
-18.1278
-6.77623
15.7234
-3.05189
-21.1265
-25.0096
21.1041
0.556972
-31.6299
35.6504
-4.02043
-18.3692
-1.86919
19.1344
-25.9468
2.35874
-17.2832
18.3672
22.0939
22.6509
-29.3227
-0.513328
-16.988
4.21484
-21.2029
20.8861
-9.36718
22.9771
-24.9281
17.0305
-22.2486
18.6745
-2.52838
19.3789
-12.0836
7.48523
-21.6766
-17.7259
24.82
-12.5764
27.9509
-14.6014
42.5523
-25.2938
24.553
17.9994
-4.91802
-20.9778
-24.4589
19.5409
0.0940643
20.9192
23.6655
-13.579
21.9383
10.5031
-22.2517
-9.7118
-31.2836
9.03196
-16.1339
-9.20939
18.2413
15.6812
18.2326
6.42846
-16.0564
23.0844
-26.4033
-6.6063
-12.48
24.0932
-4.55237
13.7292
-26.2092
-8.30099
18.4427
-1.97008
-16.4726
2.08422
-19.8811
8.38051
-28.2616
22.572
-25.2004
4.74423
-17.8905
-11.1899
-11.8723
-4.83463
-11.3844
-15.819
10.9844
-3.61547
11.7359
-18.5113
16.5412
-7.7953
18.7797
-11.9916
-2.06357
12.5873
2.99265
21.7723
1.77908
-22.1654
-10.1144
20.4191
-10.3047
5.05766
-16.7752
3.64387
11.6198
16.6441
-31.0601
0.463629
-21.7018
-9.14799
15.8718
10.0427
28.0226
4.48262
16.8317
-0.959875
21.3143
9.95615
9.18312
-14.4235
16.9685
4.70631
21.0741
-4.22088
14.1109
9.60873
9.63612
4.17682
11.0663
6.92242
16.2925
1.17874
-10.323
8.18231
-16.6646
-2.73427
-16.1654
0.668259
10.8088
-10.1405
16.2375
-5.6821
5.93276
0.469205
-10.7486
10.2793
-13.8639
-9.40659
-1.00302
-7.26636
11.3079
9.20686
-10.3049
-3.55899
1.67768
-18.7353
14.1525
-13.9838
-1.24905
28.2051
-12.557
1.10866
-5.33748
-10.9872
-13.2873
12.6152
30.4999
1.47626
15.0896
25.0768
14.6233
1.04427
15.5707
-21.4366
-14.0501
-21.9499
-1.06384
18.0706
6.77428
27.0084
24.7736
20.2213
-5.9879
-32.3912
26.4276
-9.45916
22.0588
-5.5862
-22.6754
22.393
11.0486
-25.2122
0.0118323
-22.6636
-32.1227
-1.30356
17.8448
-20.4687
18.4052
12.7406
1.90595
-9.41101
-2.46124
10.1456
-0.962509
20.3518
-1.71824
-17.0333
18.7516
-9.09056
6.35629
1.42795
8.35205
11.7073
6.0252
-11.0081
-21.1487
-9.04866
-7.62737
-20.7427
1.9795
-11.1864
12.7756
-6.41935
7.00766
12.3322
18.265
-3.90439
-14.651
14.2655
-7.25784
11.0071
)
;

boundaryField
{
    wall-4
    {
        type            calculated;
        value           uniform 0;
    }
    velocity-inlet-5
    {
        type            calculated;
        value           uniform -18.7548;
    }
    velocity-inlet-6
    {
        type            calculated;
        value           uniform -9.37738;
    }
    pressure-outlet-7
    {
        type            calculated;
        value           nonuniform List<scalar> 8(23.6411 22.919 23.3467 24.0461 23.3076 23.4846 23.1887 23.6139);
    }
    wall-8
    {
        type            calculated;
        value           uniform 0;
    }
    frontAndBackPlanes
    {
        type            empty;
        value           nonuniform 0();
    }
}


// ************************************************************************* //
