/*--------------------------------*- C++ -*----------------------------------*\
| =========                 |                                                 |
| \\      /  F ield         | OpenFOAM: The Open Source CFD Toolbox           |
|  \\    /   O peration     | Version:  4.0                                   |
|   \\  /    A nd           | Web:      www.OpenFOAM.org                      |
|    \\/     M anipulation  |                                                 |
\*---------------------------------------------------------------------------*/
FoamFile
{
    version     2.0;
    format      ascii;
    class       volScalarField;
    location    "2";
    object      p;
}
// * * * * * * * * * * * * * * * * * * * * * * * * * * * * * * * * * * * * * //

dimensions      [0 2 -2 0 0 0 0];

internalField   nonuniform List<scalar> 
918
(
7.81007
16.2953
-0.0039375
7.79924
0.000471481
16.2419
-14.4708
14.2832
7.69651
-2.12215
-0.135246
8.35865
16.0139
15.7473
4.69186
0.116443
13.1183
-11.4216
7.65115
0.0525022
16.518
7.75695
7.76974
7.73867
10.0717
16.8135
15.8113
-0.0297518
0.00845313
-0.0128993
-0.0039252
-0.00769269
0.0204193
16.0463
16.1321
16.1723
7.41385
5.79505
-11.3862
-13.3761
-10.9587
-14.8741
13.9095
13.9897
-7.97652
14.184
14.6142
7.64813
7.701
7.70291
7.72611
7.69874
7.71965
2.68933
-2.49663
-3.67447
-1.5949
-1.38124
0.520032
-0.162116
-0.213151
-0.154916
-0.043904
6.85308
8.22597
8.04487
8.42005
8.7156
16.1935
16.152
16.192
16.046
16.0725
15.9818
15.9223
15.6793
15.7129
15.7295
15.8572
2.29518
-2.98649
7.70269
9.28452
0.0401776
0.116604
0.070894
12.5401
12.7861
12.8638
13.2798
7.76679
-10.426
-14.3252
7.6744
7.65147
7.73568
7.73693
7.69334
7.7082
0.040705
-0.0148342
-0.0151112
0.0394058
0.0311686
15.8696
15.7624
7.70848
7.63086
8.93991
9.56736
9.17375
3.27812
10.4089
11.1966
14.6168
15.9069
16.3159
16.1482
15.7466
15.6295
15.8436
15.8968
0.0473188
-0.010646
0.122215
0.00244478
0.0977467
7.4502
7.36895
7.66653
7.46088
7.45179
5.35543
4.54162
6.25612
6.57027
-9.50242
-11.4803
-11.5205
-11.5806
-15.0123
8.81537
13.6144
13.8638
-7.24243
-5.84619
-9.20931
-5.15603
-6.60236
7.42671
7.55944
7.52066
7.61172
7.64036
7.66411
7.722
7.70652
7.71558
3.00395
3.79404
2.30807
2.09705
-6.91911
-3.96961
-6.5513
-1.02493
-0.820943
0.665565
0.830754
0.474192
0.438052
-0.605248
-0.293127
-0.496578
-0.0155416
0.00059223
6.58194
6.38743
7.0192
7.05659
7.82413
7.82606
7.93056
7.87838
15.8372
15.8836
15.892
15.8296
-8.61549
-22.2873
11.2016
12.1301
0.0254189
0.005313
0.0253059
0.0140687
0.0359137
0.0132712
0.253479
0.238929
0.14734
0.236209
12.2532
12.3998
7.43889
8.40274
6.8695
6.8878
7.60405
7.65056
7.62438
7.61998
0.00796757
-0.0230377
-0.0123679
14.5295
15.2054
15.0662
2.28121
0.267202
4.42763
4.93531
11.9806
11.394
12.0006
15.0297
15.117
15.9285
15.9558
15.9454
15.962
16.0363
16.0655
16.0047
7.13899
7.27151
7.20762
7.69692
7.70855
7.65115
7.72754
7.72028
7.76713
3.97373
2.65657
7.88056
7.40799
6.81074
7.19769
8.60764
9.06549
13.0799
13.4097
13.4672
-3.45572
-4.74312
1.70863
1.42225
5.52323
6.13804
5.81892
15.8272
15.7129
15.8362
15.7924
15.7039
15.7648
2.80409
-4.13147
-0.47855
14.314
13.0978
13.6977
0.363057
0.270136
0.275016
8.07836
8.77827
4.13545
5.60726
5.41834
15.5467
15.6208
15.6061
15.396
15.4875
15.6807
15.655
8.39878
7.93231
8.44831
8.6078
9.09556
-0.468811
-2.44827
-2.86486
0.910992
1.16224
0.963793
8.41592
8.48104
8.91464
7.65777
7.69535
0.0757159
0.0865619
7.71881
7.69289
0.0217496
-0.0216236
13.3394
5.74074
0.795158
7.69744
7.54517
7.69737
-1.72201
2.46202
-0.167725
0.572268
0.350333
8.17178
6.9762
6.20299
-0.082315
0.116077
0.015372
-5.16149
7.58891
7.5843
7.67342
7.69554
7.68405
-0.0192012
0.0407205
0.0222973
0.0225393
0.0505535
0.0279703
7.44308
7.62409
-3.96166
7.69614
7.7074
7.70326
7.70571
7.70414
7.71065
0.0765898
0.023611
0.0904915
2.34703
5.0794
15.5737
16.992
14.4559
13.0496
11.4676
14.5588
15.2106
14.2402
15.6889
12.953
13.5136
1.75872
-1.11406
1.95219
0.397655
7.67065
7.69294
7.56324
7.44814
7.6194
7.6278
7.67456
7.66411
7.7054
7.69423
-0.980932
-1.19191
-2.09601
-2.76534
2.76987
3.59769
1.93257
2.03211
1.15618
0.0308222
-0.0796768
-0.185748
-0.214405
0.278605
0.35638
0.450355
0.48023
0.279406
0.282261
0.287574
0.304714
0.346462
8.01272
7.93695
8.14675
8.33593
7.04808
7.12539
6.59681
6.9811
6.68384
5.68687
6.18577
5.73707
0.0218453
-0.0214311
0.015642
0.0849691
0.163528
0.13066
0.0669798
0.0906208
0.0429794
0.0253979
0.0395928
0.0381372
-4.60271
-6.48658
6.98037
5.95393
3.18581
7.61566
7.6146
7.62287
7.60522
7.63129
7.6709
7.63466
7.65897
7.62848
7.66631
7.6737
7.67621
-2.88329
-5.95266
-2.70507
-4.19956
5.83857
11.4156
5.2491
3.7627
3.47093
8.56648
12.9944
14.7391
17.2528
16.8298
8.05236
10.2203
8.69189
10.6744
9.55477
15.2278
15.5452
15.6851
15.4917
15.0668
4.07182
8.73465
-2.93693
-2.20254
1.46896
-0.439941
14.9152
12.597
12.7952
13.3143
13.8896
12.6652
12.2805
12.0961
12.9889
13.1807
8.323
3.29928
2.24248
1.20645
12.1752
9.31629
10.6121
8.71433
7.62579
7.67489
7.67829
7.46124
7.51698
7.48847
7.6037
7.63195
7.62559
7.59595
7.59714
7.6273
-0.973489
-0.896427
-1.57271
-3.19706
-3.01227
-4.19132
-2.34781
0.899156
0.608825
2.83955
3.8443
-0.115402
-1.95043
-1.76738
-0.340312
0.987235
1.24814
0.79532
1.34191
1.46643
1.14741
1.79812
1.71733
0.0518101
0.177274
-0.103099
-0.113367
0.637528
0.812872
0.797309
0.215364
0.196384
0.0254664
0.0304726
0.428724
0.0452982
0.222597
0.255524
0.11491
0.103305
0.174027
0.161162
0.154255
0.17955
7.74514
7.84031
7.79767
8.45041
8.64224
8.93092
8.28432
7.34436
7.19384
7.23493
7.07509
7.20493
7.28494
7.4196
7.69125
7.83017
7.60358
7.67294
7.51376
7.50956
7.33065
7.41535
7.1059
6.65738
6.41968
0.0944766
0.108583
0.156875
0.030627
0.0445175
0.0573753
0.250072
0.209139
0.19328
0.197847
0.23916
0.0844193
0.0773054
-2.35953
-0.447948
-5.30556
-5.41143
-7.22056
6.84784
7.64969
5.8939
4.88317
5.07321
6.13063
6.54676
4.04273
5.01698
4.97525
7.95217
7.871
7.60955
7.64275
7.58984
7.56562
7.60887
-1.06847
0.763336
0.0549656
1.38333
5.79461
6.18562
4.20206
4.76931
5.44636
5.15818
11.1396
11.4855
10.201
10.8583
10.8046
6.92731
8.51546
9.88085
8.79564
9.75778
10.3164
9.38503
10.1855
8.7345
7.85804
7.91276
6.39913
7.13521
6.64339
5.92519
7.96296
7.52726
7.71143
7.61094
8.07129
8.91333
8.65399
9.04212
9.58958
7.85486
7.06103
7.36647
7.85888
6.90648
7.14591
7.50772
3.79921
4.4141
4.87403
4.10947
5.23883
4.63408
4.69819
4.2884
4.89896
3.12358
3.17091
1.00906
7.27699
13.3861
14.4696
14.9768
13.9089
13.4134
13.5264
14.3124
14.4621
12.0084
12.4456
12.5096
11.3092
12.0549
12.5887
12.6204
7.97612
6.09564
5.99262
4.93768
2.12224
2.90876
7.26972
5.77823
4.12029
3.80627
7.54627
5.15682
6.70238
7.68101
6.62978
5.13825
9.86696
11.1578
11.0266
10.6287
8.52199
8.75816
9.37422
10.2401
10.7968
11.4483
7.53542
7.6173
7.62586
7.59013
7.57203
7.60785
7.64948
7.62825
7.58429
7.566
7.60292
-0.26276
-0.193061
-0.616949
-0.453191
-0.283624
-0.512777
0.0226347
-0.439731
-0.0677107
-0.0227183
-0.35967
-0.673763
-0.479411
-0.233934
1.29303
1.58038
1.53861
0.915439
2.09871
3.47191
4.01238
3.3463
1.81966
2.21668
2.67461
0.54574
0.593369
0.458114
0.618105
0.590747
0.0534196
0.0514511
0.0669585
0.102627
0.0646089
0.0391594
0.0330529
0.0234817
0.0198251
0.0398116
0.0576766
7.40972
7.32967
7.39486
7.27167
7.21127
7.49848
7.48616
7.60999
7.68825
7.72878
7.59859
7.71739
7.74453
0.17887
0.0396426
0.091476
0.0638881
0.0580687
0.0608542
0.0547773
2.70887
0.736636
1.98715
0.0097727
-3.21315
-1.83973
6.20273
7.40574
7.63433
7.51098
6.6279
6.68385
7.59085
8.01619
4.27593
5.76022
4.94221
7.3811
7.26636
7.86144
5.91854
3.23801
5.38921
5.85034
4.09083
4.83341
4.62017
2.33552
3.06411
3.70482
5.08576
5.07537
4.89443
4.63835
4.65117
5.45489
5.49726
6.16228
6.70118
3.45032
2.97051
1.94225
11.0622
11.3918
11.8514
11.2811
11.7947
9.7681
9.63006
10.1324
10.3166
10.1037
2.62489
3.09317
1.8188
5.48291
6.4167
7.72145
6.50054
11.4732
10.4448
12.9752
12.829
11.6725
10.8431
10.7863
11.8269
5.05845
7.74562
6.9795
7.47549
5.71005
3.9971
10.526
10.3364
11.2197
11.8262
10.8302
11.7649
7.55517
7.56583
7.49754
7.47049
7.42691
7.45067
0.629502
0.27918
0.70629
0.438392
0.00465094
-0.0729847
0.152941
0.128328
0.108218
0.118469
0.182237
0.158765
3.31007
3.59822
0.756655
2.21404
-0.825462
-2.24677
-2.99451
-0.0343114
1.69322
1.18845
4.75627
6.0643
5.30797
5.70233
4.43454
4.84516
7.20851
6.72078
7.23714
6.14449
6.36994
6.39872
4.02493
5.23978
11.0405
10.4877
8.87599
8.04353
8.01937
9.80989
8.77079
7.97074
8.77247
9.89033
9.91404
4.64884
4.60016
5.63771
6.18786
4.63853
4.96168
4.71356
5.42603
4.93498
)
;

boundaryField
{
    wall-4
    {
        type            zeroGradient;
    }
    velocity-inlet-5
    {
        type            zeroGradient;
    }
    velocity-inlet-6
    {
        type            zeroGradient;
    }
    pressure-outlet-7
    {
        type            fixedValue;
        value           uniform 0;
    }
    wall-8
    {
        type            zeroGradient;
    }
    frontAndBackPlanes
    {
        type            empty;
    }
}


// ************************************************************************* //
