/*--------------------------------*- C++ -*----------------------------------*\
| =========                 |                                                 |
| \\      /  F ield         | OpenFOAM: The Open Source CFD Toolbox           |
|  \\    /   O peration     | Version:  4.0                                   |
|   \\  /    A nd           | Web:      www.OpenFOAM.org                      |
|    \\/     M anipulation  |                                                 |
\*---------------------------------------------------------------------------*/
FoamFile
{
    version     2.0;
    format      ascii;
    class       surfaceScalarField;
    location    "2";
    object      phi;
}
// * * * * * * * * * * * * * * * * * * * * * * * * * * * * * * * * * * * * * //

dimensions      [0 3 -1 0 0 0 0];

internalField   nonuniform List<scalar> 
1300
(
18.7548
9.37738
-23.3168
18.7548
-23.0065
9.37738
-23.0839
23.0839
-8.36327
8.36327
9.3762
9.37857
-19.4074
19.4074
-19.7918
19.7918
-15.3328
15.3328
-8.78139
8.78139
-8.70136
8.70136
9.19468
-9.19468
-19.0098
19.0098
-10.7168
10.7168
-21.7091
21.7091
16.1655
-16.1655
-19.9275
19.9275
-3.99001
3.99001
-2.53692
21.2917
16.2178
16.2178
-14.1496
14.1496
-7.87713
7.87713
10.4514
-10.4514
35.1065
-35.1065
-11.7898
-11.8416
4.76167
-28.5933
-18.2449
-18.2449
-14.0674
14.0674
-4.69
4.68738
16.011
-16.011
-6.58381
6.58381
-23.1531
0.0692171
-23.1531
23.0884
-0.00446171
23.0884
-9.09303
0.729762
-9.09303
21.3341
-21.3341
7.50354
0.85973
7.50354
15.9964
-15.9964
-9.37775
18.7539
9.37702
-9.36541
30.6571
-9.38936
18.7679
-17.7058
17.7058
-19.8561
0.448669
-19.8561
19.3274
0.0800066
19.3274
-19.5921
19.5921
-19.682
-0.10983
-19.682
19.8614
-0.0695492
19.8614
16.3366
-16.3366
-15.4619
0.129154
-15.4619
15.0178
0.314956
15.0178
0.562618
8.81476
-9.94
14.6274
-8.81476
0.0333717
8.74158
0.0398097
8.74158
-8.73193
0.0305678
-8.73193
8.59994
0.101417
8.59994
9.88803
-0.69335
9.88803
-9.04324
-0.151444
-9.04324
-11.5889
-11.7587
-19.2401
0.230221
-19.2401
-11.0352
0.31839
-11.0352
10.6001
0.116653
10.6001
-14.027
14.027
-22.8307
1.12166
-22.8307
16.1275
0.0380041
16.1275
9.36935
9.38541
28.1241
-28.1241
11.9586
-19.9338
0.00620339
-19.9338
-19.9778
-15.1287
19.9778
-0.0502493
-5.29378
1.30377
-5.29378
16.1805
0.0373798
16.1805
14.6207
0.397137
-14.6207
0.471085
18.3372
-18.3372
11.0456
3.10403
11.0456
-9.49495
9.49495
8.38279
0.217153
-8.38279
0.505662
10.3391
0.112232
10.3391
-10.4052
-0.0461461
-10.4052
11.8509
-23.6925
-11.674
18.6579
0.351917
-18.6579
0.413049
16.0691
-0.0581093
16.0691
-15.621
15.621
-15.993
-0.0179278
-15.993
-6.84725
0.263435
-6.84725
6.51244
0.071371
6.51244
-22.4879
-0.665226
-22.4879
-23.1257
0.294986
23.1257
-0.0373067
9.17064
-9.17064
-9.76677
0.67374
-9.76677
-21.831
-0.656913
21.831
-0.496952
-21.2171
-0.116958
-21.2171
-15.9819
-0.0111273
15.9819
0.0144516
16.0952
0.0853131
-16.0952
0.0987861
-9.37452
18.7599
-9.38025
18.7573
-16.8748
-0.831049
-16.8748
18.513
-0.807172
18.513
20.8557
0.853374
-20.8557
0.99962
19.4547
-0.127302
19.4547
-19.4723
-0.11986
-19.4723
19.6228
-0.0307039
19.6228
19.577
-0.122297
-19.577
-0.105009
19.8762
-0.0147924
19.8762
16.5739
-0.23726
16.5739
-16.1813
-0.155303
-16.1813
15.6379
-15.6379
15.5456
0.0922865
-15.5456
0.0836482
-18.3783
18.3321
-0.0155387
-18.3627
8.72604
8.72604
9.56543
0.322601
9.56543
-8.97546
-0.0677735
-8.97546
11.6592
-23.3332
11.5939
-23.1828
11.9127
-40.506
11.723
-23.4817
19.485
-19.485
19.4123
0.0726456
-19.4123
0.172242
-11.081
0.0458309
-11.081
-13.2144
-0.812607
-13.2144
14.9867
-0.95971
14.9867
-15.8704
15.8704
-16.0356
0.165262
16.0356
0.0918874
19.9309
-0.0547547
-19.9309
-0.00283175
6.4417
1.06184
-6.4417
1.14791
19.3126
-0.975412
19.3126
-17.3709
-0.966271
-17.3709
-11.1857
0.104685
11.1857
-0.140105
-9.82338
0.328428
-9.82338
-18.547
0.184236
-18.5071
-10.221
-10.221
3.84639
18.4738
-16.1157
-0.065631
16.1157
-0.0465867
15.6513
0.21909
-15.6513
0.0303114
-15.6555
0.0176071
15.6555
-0.0344968
-7.16181
0.314568
-7.16181
-7.3762
7.3762
-6.78103
-0.59517
6.78103
-0.268585
10.1901
-1.01945
10.1901
10.2858
0.31435
-10.2858
0.518988
-20.6399
-0.577211
-20.6399
19.0795
-0.566443
19.0795
-16.8651
-0.505812
16.8651
-0.291263
0.00288482
18.3292
-8.72893
-0.00299929
8.72893
-18.4415
18.4385
-8.07036
0.908546
8.07036
1.49507
9.20092
0.294034
-9.20092
0.225457
19.5524
0.0703837
-19.5524
0.0674909
-12.4241
-0.790297
-12.4241
-15.9236
-0.951232
15.9236
-0.936861
-18.7798
-0.306446
19.0862
-18.6783
10.1298
0.209315
-10.1298
18.6478
-8.20434
-0.966303
8.20434
-0.82814
11.1475
-0.95742
11.1475
20.3295
-1.01693
-20.3296
-0.310338
-19.341
-0.131295
19.341
-0.261506
-11.8495
-0.574581
11.8495
-0.701997
-21.293
21.3304
9.36405
-11.8329
-11.8596
-26.9616
9.37153
9.3884
21.3301
-25.0099
-15.4961
-24.5969
12.4366
-12.2112
-17.618
16.9246
36.6261
-36.7431
-28.5814
28.6733
31.4122
-31.3977
9.37564
9.3783
38.3503
-37.9017
-36.4719
35.6409
36.2963
-36.4062
37.7818
-37.9017
-43.46
43.5304
-28.353
28.4822
-32.6045
32.4492
-33.3149
33.0236
-11.7425
-11.4403
31.8316
-31.6014
41.5213
-41.5151
-40.8481
41.9697
16.8215
4.50892
16.9068
-9.41418
18.7898
-9.35375
18.7178
11.5383
-23.2808
11.7949
-23.6545
21.3747
20.1466
-21.3244
-5.63724
-28.9221
28.864
-28.8965
28.862
42.5232
-42.454
-9.38697
18.7653
-9.37029
18.7587
-16.8443
-11.7372
16.8063
4.52388
19.7198
12.1118
-20.0717
-4.52517
-37.3419
36.325
-38.658
37.6917
-1.44846
9.66877
-8.22031
6.42867
-1.9925
11.6613
10.4441
10.3764
9.72605
-9.43202
2.48512
-10.7054
-10.1998
-13.391
14.0647
13.0948
-12.2351
28.7908
7.83533
28.2939
-26.5227
-10.2204
-27.1
18.8086
9.86472
18.9739
19.8665
11.5457
19.8554
15.1344
-15.0726
-0.0617884
-15.2381
30.3725
3.69269
-26.9753
-22.4514
24.7585
13.5918
24.8385
-26.4936
-11.4081
-25.494
-21.7339
-14.738
-22.6852
23.3961
12.2448
22.5889
-27.7292
27.4677
24.0659
12.2304
23.9964
-24.2697
-12.1364
-24.3747
36.6713
-9.48452
-27.1868
-24.404
-19.056
24.4347
13.3471
26.4507
17.0796
26.5182
12.5343
24.137
-25.8814
6.82546
-18.9541
-9.39895
-18.8704
18.39
10.0922
18.7049
-20.4896
-12.1149
-20.5552
-20.666
-12.6488
20.9033
11.5459
-21.1879
-17.4701
21.6937
11.3299
10.6902
-26.1863
12.7915
-24.2318
-22.1319
-9.46949
-21.9596
14.0901
9.58951
-23.6796
-9.19073
38.4825
-18.3359
32.8453
-25.8256
-15.6895
-25.8284
-32.1729
-8.67521
-31.8779
-19.746
18.9557
-20.2405
19.2808
36.171
-20.1192
-16.0518
-19.3324
-12.0653
19.2336
-2.32683
-18.6196
18.5578
0.170232
18.888
23.397
21.0701
-19.1346
-9.76196
-19.1043
19.012
9.85008
19.0296
32.1754
10.3478
32.1709
-30.6663
-11.7877
-31.3315
19.8128
-19.5494
14.568
-14.4633
25.0647
12.627
-24.0893
-13.2527
29.4346
-14.6276
-14.807
-20.4215
19.9725
0.449056
-8.76028
-2.33161
1.6584
-9.98843
-7.62957
10.1399
0.236491
20.209
12.5794
-9.09727
9.42569
9.98894
10.2061
0.00632395
12.7649
-11.8564
26.0594
-12.2874
-13.772
25.7713
-26.4282
-5.56018
-25.6261
20.0659
1.86562
8.91074
-7.60697
-10.8606
-2.53037
-10.3416
7.89437
5.20041
8.95621
5.0173
9.04742
-14.1737
2.45787
11.7158
-9.15636
-9.77718
-17.5655
-4.5848
22.1503
26.2326
10.0924
-25.9222
-1.17772
13.9363
-13.8196
-4.13163
-13.4338
9.66388
-13.7955
-16.5334
-9.20843
25.7418
-16.6179
-2.48633
16.3988
2.57501
-18.4955
-10.4266
18.5134
1.34195
-15.1868
30.2961
-15.1093
-24.9488
12.6436
17.7289
22.5083
-23.9866
12.2256
11.7609
-6.25767
21.4387
3.39982
21.3114
-32.8893
21.4812
27.8655
14.1042
-28.7189
3.22489
-29.6644
33.5523
-29.3359
-4.21636
17.1407
16.4115
18.1799
17.9912
-13.2633
31.4431
-4.12294
-25.213
33.7874
-19.6831
20.4839
-40.1671
-38.4751
13.2621
-24.315
30.1555
-5.84049
-8.52241
-19.2068
32.8374
-2.81569
-30.0217
19.7732
-18.735
-18.6793
37.4143
-28.2195
30.8157
-9.22246
-21.5933
-23.5185
-14.3832
23.6498
3.81787
-34.8112
41.6367
-10.6743
20.8518
3.14456
20.837
13.6685
-21.2651
7.59659
14.551
-23.7735
8.84912
-30.1142
-16.833
33.2419
-16.409
-26.3025
-23.3957
-2.9068
7.16672
34.47
-24.2464
18.7644
5.48193
16.4099
2.61964
-16.5022
-2.36822
1.71898
21.9208
-23.6398
20.4239
20.821
16.2516
5.66913
18.8432
10.0208
-18.7966
-1.75859
-19.8009
7.1521
-8.25502
-16.7996
23.9517
-19.1326
2.33299
-12.9688
-17.081
30.0497
-22.3677
15.0709
15.2252
24.921
-23.6308
6.54981
-11.7044
-11.9264
12.5828
-20.8378
8.98965
14.9621
20.3195
2.84945
16.6351
16.6068
-26.2247
1.99289
28.7186
-24.1934
5.78681
20.7314
-24.5512
1.15557
-20.8041
4.09312
-22.429
-19.5865
22.6868
-31.362
-17.4802
29.4307
2.74019
-29.3934
-2.48444
-13.6323
-6.11369
-14.2068
-6.25503
-13.9855
-19.5183
-4.15756
-15.3607
14.7981
-15.2413
-7.4439
16.1781
3.10269
-16.7517
15.7854
-16.6175
15.6601
0.324797
18.233
21.3949
9.32962
-11.9753
21.3049
-22.9373
33.2851
-39.4451
16.5079
19.2836
-31.0713
-20.1615
12.017
7.79589
12.0883
21.4463
-24.5836
3.1373
-22.6922
27.1873
-4.49512
-35.5935
12.9013
-14.1472
13.3942
1.17373
13.4401
3.21352
11.4168
-14.6303
-11.2498
-11.3899
-10.7715
-15.9234
26.6949
5.3698
-15.794
10.4242
-16.7584
22.1282
-0.0281012
-15.7659
25.2739
-13.8571
26.4476
-16.7865
9.6611
15.5775
26.5374
-10.9599
20.7295
-8.1025
8.4465
-19.4064
-7.47685
-14.6255
24.7177
-15.4243
17.7573
-1.07793
18.8352
-19.3104
4.68273
-3.05872
17.7623
18.2334
20.6621
-14.993
13.5513
-21.6538
-5.8551
-18.8043
-3.84224
-0.88353
-17.925
18.8085
17.4414
-18.3249
-9.82111
19.8489
-10.0277
16.291
-10.2553
-6.03574
-9.65172
-9.89769
9.33715
3.42777
19.7188
1.30184
-11.5571
-10.5545
-9.05947
15.2052
10.8542
-9.78838
10.2374
8.12998
0.780762
3.05785
5.89837
9.10241
-6.04456
0.560695
8.54171
-7.04628
10.394
3.54229
-10.7083
0.36671
-6.83073
16.4946
4.88505
-10.0855
4.0409
4.71698
-17.0044
23.0317
-12.0246
-11.0071
27.7487
5.23371
-17.2583
20.3924
-18.5267
11.0914
-15.6762
-6.16683
-24.6936
-16.8582
-11.5885
22.0127
-15.1064
25.1988
5.47929
-24.0211
29.5004
-16.7164
7.50797
-15.0118
18.554
-5.41181
-9.59995
12.9452
12.7967
-13.8917
0.457827
-0.946484
10.7426
-11.689
-3.05295
-12.2093
-22.5214
23.8633
-10.3292
22.5549
10.9757
-9.40913
31.964
9.07305
-18.4822
-15.8757
-18.362
-6.72126
15.787
-3.42112
-20.9536
-25.0144
21.0759
0.235494
-32.4676
36.3034
-3.83586
-18.8757
-2.60549
19.7462
-26.3712
2.5977
-17.5221
18.7814
22.1812
22.4167
-29.5028
-0.518919
-17.258
4.15169
-21.4097
20.5632
-9.79508
23.0572
-24.7508
17.3069
-21.6481
18.8408
-2.56884
19.7428
-12.1462
7.44392
-21.8271
-18.0092
24.6823
-12.4519
27.8269
-14.2881
42.115
-24.9624
24.4522
17.6627
-4.86481
-20.9636
-24.2709
19.406
0.181369
21.0184
23.9205
-13.8997
22.1619
10.7908
-22.4952
-10.047
-31.6168
9.12166
-16.3916
-9.16574
18.2874
15.7553
18.3749
6.36104
-16.0067
23.1786
-26.0854
-6.76967
-12.8168
23.924
-4.51793
14.1945
-27.0113
-8.23451
17.7645
-1.4621
-16.3024
2.35475
-19.835
8.3856
-28.2206
22.9764
-25.4609
5.15814
-19.3053
-11.5936
-12.4217
-5.20387
-11.4136
-16.2536
11.0498
-3.35236
12.4331
-19.0942
17.6321
-8.09311
19.1429
-12.1016
-2.10523
12.8036
2.85648
21.9994
1.76543
-21.927
-10.0215
19.6978
-9.6763
5.18373
-16.1595
3.53829
11.378
16.3707
-31.4439
0.372589
-21.5544
-8.86655
16.6624
10.9823
28.4237
3.84006
18.4267
-1.76429
22.2668
10.324
10.0554
-14.1157
17.253
4.69277
21.2006
-4.18393
13.845
9.25614
9.57453
4.24508
10.9639
7.2695
15.6466
1.01634
-10.3735
8.38996
-17.4494
-3.16718
-17.1268
-0.202186
10.6763
-10.8785
16.0479
-5.19374
6.37164
0.16834
-10.393
10.2247
-13.6037
-9.61226
-1.07055
-7.38801
11.4289
9.1066
-10.3584
-3.24531
1.29234
-18.1506
14.3839
-13.9261
-1.12941
28.371
-12.668
0.978916
-5.15999
-11.2304
-13.7608
13.3941
30.3779
1.58612
15.2685
25.4495
15.0228
1.12311
15.4497
-21.2902
-14.6645
-21.8091
-1.2459
18.5003
7.15424
27.3157
24.817
20.2991
-6.71224
-32.7977
26.531
-9.27794
22.0358
-5.73345
-22.4871
22.5042
10.7809
-25.2444
-0.216468
-22.7036
-31.9815
-1.00394
18.6361
-20.9954
18.8902
12.7765
2.58426
-10.0179
-2.40382
10.6131
-0.557649
21.7092
-1.30988
-16.9693
18.2792
-9.36644
6.19927
1.49322
8.74421
11.7179
6.52416
-10.4451
-21.3236
-9.17848
-7.82593
-20.1856
1.96463
-11.0712
12.957
-6.75769
6.92122
11.5215
17.8931
-4.06536
-14.2595
14.0931
-7.17189
10.7212
)
;

boundaryField
{
    wall-4
    {
        type            calculated;
        value           uniform 0;
    }
    velocity-inlet-5
    {
        type            calculated;
        value           uniform -18.7548;
    }
    velocity-inlet-6
    {
        type            calculated;
        value           uniform -9.37738;
    }
    pressure-outlet-7
    {
        type            calculated;
        value           nonuniform List<scalar> 8(23.3168 23.0065 23.6314 23.8316 23.3476 23.5249 23.2531 23.6357);
    }
    wall-8
    {
        type            calculated;
        value           uniform 0;
    }
    frontAndBackPlanes
    {
        type            empty;
        value           nonuniform 0();
    }
}


// ************************************************************************* //
