/*--------------------------------*- C++ -*----------------------------------*\
| =========                 |                                                 |
| \\      /  F ield         | OpenFOAM: The Open Source CFD Toolbox           |
|  \\    /   O peration     | Version:  4.0                                   |
|   \\  /    A nd           | Web:      www.OpenFOAM.org                      |
|    \\/     M anipulation  |                                                 |
\*---------------------------------------------------------------------------*/
FoamFile
{
    version     2.0;
    format      ascii;
    class       volVectorField;
    location    "2";
    object      U;
}
// * * * * * * * * * * * * * * * * * * * * * * * * * * * * * * * * * * * * * //

dimensions      [0 1 -1 0 0 0 0];

internalField   nonuniform List<vector> 
918
(
(4.98329 -0.00508984 0)
(0.00403824 4.96632 0)
(-0.0055652 6.21257 0)
(4.97568 0.00472009 0)
(-0.0191986 6.13365 4.40394e-21)
(-0.00683255 4.94771 -3.28641e-17)
(4.35188 6.14679 1.03572e-17)
(2.89235 1.51256 -2.84265e-19)
(4.99985 0.000387852 0)
(0.16596 5.87767 0)
(-0.0130776 6.0375 0)
(4.67809 -0.00665621 0)
(0.0176301 4.92463 0)
(-0.0522736 4.873 0)
(-0.0742319 6.20009 -4.96646e-18)
(0.0216747 6.0769 -1.03581e-19)
(3.5183 0.677843 2.02241e-17)
(0.996744 6.88399 7.75815e-18)
(4.97223 0.0350569 0)
(0.0165667 6.07027 0)
(1.50002 1.52515 -1.53419e-17)
(4.99915 -0.000220948 0)
(4.9997 -0.00539983 0)
(4.96283 0.00353984 0)
(4.321 0.0311875 0)
(0.120071 4.30839 0)
(-0.0558272 4.90768 1.47303e-17)
(-0.00995182 6.23617 0)
(0.000238075 6.30016 0)
(0.00988532 6.24326 0)
(-0.0119663 6.35514 0)
(-0.00968045 6.16247 -3.80443e-21)
(-0.0174556 6.0736 0)
(-0.0224754 4.98792 -1.26722e-21)
(-0.016888 5.00536 2.5032e-17)
(0.00228012 4.9999 0)
(4.90355 -0.00540247 0)
(1.97171 2.99876 3.7148e-18)
(4.58028 6.03831 -1.3601e-17)
(5.23479 5.37964 1.67095e-17)
(3.78195 6.50707 -2.14692e-18)
(3.55539 6.66658 1.32633e-17)
(3.0027 1.60337 2.93597e-19)
(3.09842 1.37771 0)
(6.20765 3.21963 0)
(2.78906 1.70466 1.26439e-18)
(2.74969 1.46911 -1.47833e-18)
(4.90472 0.0123358 0)
(4.99936 0.000673488 0)
(4.99994 2.72443e-05 0)
(5.00067 -0.00445065 0)
(5.00104 -0.0017653 0)
(5.00061 -0.00330547 0)
(0.0942621 5.78288 -4.51873e-18)
(0.0539341 6.09826 0)
(0.330013 6.08103 0)
(0.0045306 6.03877 0)
(0.0330954 5.86483 0)
(-0.030445 6.05436 0)
(-0.0525966 6.12411 0)
(-0.0378863 5.99323 0)
(-0.0280548 6.17684 0)
(0.00727092 6.05004 0)
(4.97828 0.0435811 0)
(4.76746 0.0134044 0)
(4.72143 -0.00524963 0)
(4.72626 0.0655596 0)
(4.58131 0.0788432 0)
(0.0151212 5.00046 1.27906e-17)
(0.0132122 5.0092 0)
(0.00626548 5.00201 0)
(0.0149744 4.99716 1.55294e-22)
(0.0107086 4.9568 -1.87526e-17)
(0.0154399 4.97559 0)
(0.0130657 4.89892 0)
(0.00716402 4.95531 3.93984e-23)
(-0.0510591 4.89359 0)
(0.0522311 4.92347 0)
(-0.0512633 4.80131 0)
(0.893864 7.21641 0)
(-0.232127 7.50669 0)
(0.411312 6.34956 4.65795e-18)
(0.0765203 5.58076 0)
(-0.0120885 6.21797 0)
(0.0131216 6.18591 1.02206e-19)
(0.0084108 6.10201 -9.57839e-20)
(3.6405 0.829333 -6.57993e-18)
(3.68107 0.513653 -6.38227e-18)
(3.47415 0.945265 -1.89728e-17)
(3.48753 0.820008 -1.26372e-17)
(0.769754 4.95204 0)
(1.35212 7.18284 -8.5889e-18)
(1.80064 7.18096 1.37648e-17)
(4.9828 0.0253887 0)
(4.93979 0.0258749 0)
(5.00069 9.9096e-05 0)
(5.00185 0.011458 0)
(5.0007 0.0261715 -3.66423e-17)
(4.98582 0.00909786 2.67728e-17)
(-0.00141472 6.18324 0)
(0.0162636 6.09412 0)
(-0.00485189 6.2462 0)
(-0.00893304 6.19074 0)
(0.0159206 6.09471 0)
(1.90847 1.75682 4.98887e-18)
(2.06472 1.52892 0)
(4.99185 -0.00241843 0)
(4.97131 0.0173254 0)
(4.58749 0.0994985 0)
(4.46851 0.026213 0)
(4.47395 0.0444976 0)
(5.5342 -0.00990316 0)
(4.30897 0.0477473 0)
(4.09712 0.133909 2.47527e-17)
(0.00229295 4.92952 1.51363e-17)
(0.127017 4.86993 0)
(0.221468 4.795 0)
(-0.0379713 4.63576 0)
(-0.0486725 4.98899 1.52058e-17)
(-0.0815045 4.90129 0)
(-0.0232217 5.00114 -4.41293e-17)
(-0.0185745 4.93024 1.45851e-17)
(0.002672 6.322 0)
(0.00975303 6.27565 0)
(0.0208034 6.19407 -3.12991e-21)
(0.00283326 6.19106 0)
(0.0162425 6.07703 0)
(4.96726 0.0142897 0)
(4.89828 0.0292034 0)
(4.76302 -0.0748913 0)
(4.95288 -0.00786726 0)
(4.8996 -0.012036 0)
(2.09315 3.78839 -4.62244e-18)
(2.04009 3.48569 0)
(1.92165 3.53226 5.6266e-19)
(1.87666 2.7052 0)
(4.9649 5.35292 -4.17121e-18)
(5.49545 4.81259 7.99373e-18)
(2.13092 7.18915 0)
(2.94688 6.95589 0)
(2.69035 7.04901 0)
(1.93061 3.57388 -4.05066e-18)
(3.17593 1.50126 0)
(3.26077 1.12584 3.99381e-18)
(5.5272 4.48501 0)
(5.86178 3.70986 0)
(5.89469 3.95377 -7.12811e-18)
(6.33682 2.93744 0)
(6.58159 2.1702 1.35529e-18)
(4.94876 0.00640241 0)
(4.93581 0.0102104 0)
(4.89681 0.0152069 0)
(4.99541 0.0111329 0)
(4.94803 0.0145991 0)
(4.94883 0.0125457 0)
(5.00122 0.00223 0)
(5.00019 0.00039513 0)
(4.99983 0.00086002 0)
(0.0739616 5.82483 2.45131e-18)
(0.165837 5.61474 0)
(0.0748008 5.97012 4.57264e-18)
(0.0714894 5.93965 -3.86723e-18)
(0.682077 6.78518 -6.71781e-18)
(0.310721 6.28858 0)
(0.485924 6.38747 0)
(-0.0544919 6.04403 0)
(0.0117242 5.92102 0)
(-0.0138583 6.14366 -8.34392e-21)
(-0.005489 6.02983 0)
(-0.012882 6.15508 -3.97186e-19)
(-0.013505 6.04206 7.44397e-19)
(-0.0393942 6.08393 0)
(-0.052082 6.09817 0)
(0.00319008 5.96727 0)
(0.00452095 6.1718 0)
(0.028382 6.06371 0)
(5.10007 0.0644853 0)
(5.06753 0.0425562 0)
(5.03106 0.0552191 0)
(4.95931 0.0248346 0)
(4.75872 -0.0235783 0)
(4.85905 0.0359118 0)
(4.84273 0.0239037 0)
(4.73413 0.00931734 0)
(0.0186265 5.06481 -1.45946e-19)
(0.00860344 5.05429 0)
(0.00476435 4.96656 0)
(-0.0123255 4.8858 0)
(2.24961 8.4251 0)
(2.98065 7.32408 2.23525e-18)
(0.239848 5.71539 0)
(0.0694596 5.18588 0)
(0.0160573 6.20943 0)
(-0.000257155 6.1785 0)
(0.00303418 6.19676 0)
(-0.0305528 6.34141 1.47978e-20)
(-0.0273014 6.26058 0)
(-0.0159337 6.30183 0)
(0.0113878 6.03423 1.36812e-20)
(0.0131204 6.15047 2.15221e-19)
(-0.0116088 6.16779 9.90186e-20)
(0.008601 6.06507 0)
(3.77181 0.555927 9.36586e-18)
(3.79429 0.366445 -9.10241e-18)
(0.709862 5.00582 0)
(1.0442 4.74909 -2.30927e-18)
(0.494735 5.1794 -6.6334e-18)
(0.55778 5.11313 6.66039e-18)
(4.84164 0.0405488 0)
(4.94411 0.0712263 0)
(4.97804 0.0380467 0)
(4.91011 0.0486556 0)
(-0.000730599 6.18058 0)
(0.0019832 6.19104 0)
(0.00936004 6.08897 0)
(2.62572 1.81727 1.29553e-17)
(2.23602 1.83066 -1.40289e-17)
(2.38177 1.63037 0)
(6.03506 0.452289 2.68946e-19)
(6.08506 0.0956378 0)
(5.59259 0.206896 0)
(5.26878 0.0179545 0)
(3.91072 0.493995 0)
(4.09082 0.211269 -3.97185e-17)
(3.92446 0.308012 1.56634e-17)
(0.0404397 4.99462 1.42517e-17)
(-0.06927 4.905 1.87043e-19)
(0.0104759 5.05316 -2.43908e-19)
(0.0175061 5.0379 8.84008e-18)
(-0.0154132 5.00199 4.65155e-19)
(-0.0128927 4.9513 -1.85121e-21)
(-0.0178166 5.01078 -8.24519e-18)
(0.0136517 5.01784 6.39717e-18)
(0.0129378 5.03961 -9.43181e-18)
(5.03182 0.0255555 0)
(5.00212 0.021734 0)
(4.9264 0.0195988 0)
(4.90399 0.0768525 0)
(4.87427 0.00608458 0)
(4.75687 0.0132971 0)
(4.87497 -0.0125927 0)
(4.86273 -0.0289621 0)
(4.75779 -0.061937 0)
(2.30267 4.17275 -4.03569e-18)
(2.13672 4.14045 0)
(1.96463 2.88031 1.11585e-18)
(1.87929 3.41982 8.3005e-18)
(1.88489 3.432 -4.8624e-18)
(1.91901 2.68131 9.31567e-18)
(1.72775 4.0505 1.94847e-17)
(1.79991 3.97719 3.95757e-18)
(3.42527 1.18399 1.49376e-17)
(3.29001 1.30847 3.3033e-18)
(3.36346 1.10232 6.76646e-18)
(6.40728 2.2281 3.96828e-18)
(6.58622 1.58428 3.92038e-18)
(0.0158195 6.08327 1.5917e-18)
(0.00849304 6.06611 0)
(5.3342 0.109521 0)
(5.19065 0.0597125 0)
(5.13878 0.0191004 0)
(0.0268496 5.06119 0)
(-0.0158065 4.96316 2.06238e-17)
(-0.0175478 4.95958 0)
(-0.0421122 4.88252 -2.12631e-17)
(0.0323081 5.0795 4.37997e-18)
(0.0369748 5.07746 0)
(2.36754 4.57208 2.25301e-19)
(3.09647 5.86653 -8.14614e-19)
(2.26471 4.85659 -2.18728e-18)
(0.103633 5.09543 -1.36644e-17)
(0.154215 5.31766 0)
(0.0573794 5.02332 0)
(-0.0167797 6.1343 -6.75483e-20)
(-0.000118664 6.14448 -4.68131e-19)
(-0.0183062 6.03574 -3.91911e-20)
(0.947238 4.80323 7.11574e-18)
(1.26106 4.5907 -5.36346e-18)
(0.135548 5.65886 4.28895e-18)
(0.290388 5.44083 -5.41033e-18)
(0.319943 5.37972 7.09376e-19)
(0.0428494 5.09 -3.19089e-17)
(0.0603281 5.09796 3.18821e-17)
(-0.0205005 4.97725 1.50957e-17)
(-0.0153965 4.96936 -1.50734e-17)
(-0.0743522 4.88098 -1.53768e-17)
(0.0472056 5.0817 -4.18963e-17)
(0.0421103 5.08515 3.90306e-17)
(1.79637 3.7818 0)
(1.86667 3.56339 -1.856e-17)
(1.95897 3.22006 8.36872e-18)
(1.56147 4.33101 9.55506e-18)
(1.64672 4.26752 -1.50139e-17)
(6.39272 0.894872 1.78722e-19)
(6.52965 1.34243 0)
(6.54291 0.651009 1.26757e-18)
(-0.0285682 6.14702 -1.19082e-20)
(-0.0250395 6.14722 0)
(-0.0251208 6.05445 0)
(1.12611 4.70104 -2.71107e-18)
(1.34944 4.5681 -6.12704e-18)
(1.47115 4.47149 1.12938e-17)
(5.00054 -0.0132413 0)
(4.99634 -0.00168382 5.94318e-18)
(-0.00609595 6.31806 0)
(-0.0209652 6.3353 0)
(5.00257 -0.00226824 -5.32881e-21)
(5.00234 0.00837186 1.37872e-17)
(-0.0200643 6.33492 -1.83514e-20)
(-0.0263751 6.34596 0)
(0.291119 5.49987 1.34288e-17)
(1.14318 6.50545 0)
(5.2002 3.49651 -4.70746e-19)
(4.99938 0.0117517 -1.635e-20)
(4.96334 -0.0323192 0)
(4.99908 -0.00166546 1.09036e-20)
(0.223962 6.61593 0)
(0.251181 6.06747 0)
(0.00975507 6.37381 0)
(0.0416432 6.29976 5.70306e-19)
(-0.00296992 6.29233 2.20473e-19)
(4.94603 0.0693863 7.08771e-20)
(5.14532 0.0372684 0)
(5.29548 0.121097 0)
(0.0178478 6.1864 0)
(0.0275436 6.29315 0)
(0.00455413 6.33793 0)
(0.888818 7.0736 -4.20173e-18)
(5.0206 -0.0286348 0)
(5.0181 -0.0586079 0)
(5.01903 0.000383535 8.1261e-18)
(4.99586 -0.00250294 -9.35232e-18)
(5.00595 -0.0117935 0)
(0.0298768 6.18419 0)
(0.00176121 6.30687 0)
(0.0272139 6.22545 0)
(-0.00561034 6.34588 0)
(-0.0128803 6.33513 0)
(-0.0157924 6.34534 0)
(5.04296 0.0266335 0)
(5.0403 0.0178924 1.91036e-20)
(3.39666 6.17383 6.23265e-18)
(4.99908 0.00111356 -8.07249e-18)
(4.99931 0.0028484 9.00808e-18)
(5.0005 0.00284953 0)
(5.00133 0.0193768 7.9923e-18)
(5.00745 0.00672298 -1.06486e-17)
(4.98536 -0.00660688 0)
(0.0167676 6.31432 0)
(-0.0180168 6.34456 6.37533e-20)
(-0.0217353 6.33441 -5.26063e-20)
(5.6954 1.29362 6.95681e-18)
(5.40794 0.408702 0)
(0.501313 4.92509 -2.29956e-17)
(0.291007 4.6655 -1.51127e-18)
(0.72513 5.43527 2.90573e-17)
(0.560468 5.59801 -8.66762e-18)
(0.650009 5.76693 0)
(0.125434 5.2261 5.69345e-18)
(0.398332 5.26077 2.26927e-17)
(0.408427 5.42531 -1.14479e-17)
(0.205463 5.04858 0)
(3.50071 1.77072 0)
(3.02869 2.07457 0)
(5.27533 3.55 5.84845e-19)
(4.98334 4.25896 3.02234e-19)
(5.45433 2.86237 0)
(5.51707 2.84492 0)
(4.9962 0.0186959 -1.55272e-17)
(4.98626 0.016751 2.29262e-17)
(4.96716 -0.016838 0)
(4.98176 -0.0034069 0)
(5.02001 -0.0076575 0)
(5.03265 0.0266787 0)
(5.01202 -0.00375338 0)
(5.03064 0.0329183 0)
(5.00404 0.00257988 0)
(5.00445 0.00380716 0)
(0.193906 6.57693 0)
(0.0429221 6.54817 0)
(0.314824 6.77547 0)
(0.192805 6.84234 0)
(0.254728 6.02012 0)
(0.204676 5.9744 -3.03563e-18)
(0.250741 6.14579 0)
(0.196346 6.14265 1.4703e-18)
(0.0657479 6.20871 -1.24906e-18)
(0.00825614 6.37228 0)
(-0.00101485 6.36569 0)
(0.00470728 6.39481 0)
(-0.00351844 6.45143 0)
(0.011621 6.27612 -2.37192e-19)
(-0.0076027 6.3029 2.559e-19)
(0.0181497 6.32064 4.48141e-19)
(0.00596123 6.31901 0)
(-0.00183553 6.302 -4.89795e-19)
(0.0128092 6.29632 -3.40057e-19)
(0.00384036 6.26112 1.91566e-19)
(-0.023242 6.27226 -4.16208e-19)
(-0.00158447 6.29726 -4.94449e-19)
(4.98187 0.064154 1.60972e-17)
(4.99128 0.0277712 -2.05659e-17)
(4.95377 0.120696 -1.84166e-17)
(4.89102 0.0999276 2.19795e-17)
(5.12318 0.0547951 0)
(5.15331 0.0118762 0)
(5.21346 0.162772 0)
(5.14361 0.0224017 0)
(5.22696 0.0530315 0)
(5.38698 0.315845 0)
(5.29377 0.223993 0)
(5.42094 0.183424 0)
(0.00593859 6.3113 -5.38145e-21)
(0.0365172 6.19001 0)
(-0.00481284 6.26254 0)
(0.0295133 6.30105 4.77086e-20)
(0.0324198 6.30623 -3.39531e-21)
(0.0403775 6.18409 1.05915e-19)
(0.0192856 6.20376 -1.09163e-19)
(-0.0089424 6.31194 0)
(-0.00201185 6.30848 0)
(-0.00600483 6.30417 0)
(-0.00736657 6.33215 0)
(-0.00220033 6.31917 0)
(1.53044 7.12471 6.39253e-18)
(1.47831 7.20471 2.89587e-18)
(1.05573 5.4801 -1.97697e-18)
(0.549901 5.66268 4.84848e-18)
(1.07811 5.75529 1.1186e-18)
(4.96326 -0.0463283 0)
(5.00215 -0.0638974 0)
(4.95342 -0.0781287 0)
(5.04592 -0.0170674 0)
(5.01474 -0.0253187 0)
(4.98999 -0.0270082 0)
(4.99595 -0.0425352 0)
(4.97885 -0.0426405 0)
(5.04879 0.00710344 1.37924e-17)
(5.05658 0.00775158 -1.98159e-17)
(5.03564 0.0225081 -1.48891e-17)
(5.0242 0.026407 1.96095e-17)
(3.43343 6.2506 0)
(2.87532 6.69854 6.32007e-18)
(4.04631 5.6768 2.62117e-18)
(4.07671 5.76369 -3.41566e-18)
(2.98835 5.54442 1.09543e-17)
(4.04262 0.666708 1.06261e-17)
(5.46197 0.451744 0)
(5.73121 0.905721 -5.21808e-18)
(5.60663 0.737981 -2.10752e-19)
(4.78444 0.620448 0)
(0.932282 5.28041 1.50261e-17)
(0.790672 4.71998 -2.79003e-17)
(0.633018 3.3431 1.71212e-17)
(1.10477 1.64678 -7.58632e-18)
(0.974485 6.3803 5.83303e-18)
(0.659292 6.07019 0)
(0.744476 6.19237 -7.59169e-18)
(1.10496 5.46223 -3.95646e-17)
(1.25431 5.80715 0)
(0.0588688 5.09538 9.99889e-19)
(0.0999028 5.12109 -1.09903e-17)
(0.0719149 5.08966 1.62596e-17)
(0.203997 5.16766 0)
(0.202284 5.23296 0)
(3.31279 5.67714 0)
(2.70031 3.92418 -8.18214e-18)
(4.67182 5.08349 -1.14742e-18)
(4.69023 5.12786 0)
(4.03598 4.4122 -1.13101e-18)
(5.06729 4.36648 5.63161e-19)
(2.13233 2.28057 -1.95962e-17)
(3.61956 1.71123 -5.37978e-19)
(3.68734 1.59464 7.83985e-18)
(2.96865 2.14746 6.29517e-19)
(2.7591 2.125 -2.55459e-17)
(3.46221 1.84993 0)
(3.31763 2.15099 1.31499e-17)
(3.34526 2.15662 0)
(3.22719 2.06473 0)
(3.33404 1.86615 0)
(3.6523 2.99864 6.93423e-18)
(5.71689 1.3321 -6.23502e-18)
(5.689 2.0709 0)
(5.67275 1.99531 0)
(3.94718 1.16658 1.19641e-17)
(3.81322 2.60152 -6.85644e-18)
(3.40141 2.44167 1.17108e-17)
(4.28298 2.03058 -1.3075e-17)
(5.04645 0.00744373 1.16802e-17)
(5.00429 0.0197972 -1.12367e-17)
(5.02537 0.0262764 0)
(5.02127 0.0538492 0)
(4.98849 0.0294322 -1.01591e-17)
(5.00226 0.0185505 9.91524e-18)
(5.02752 0.012678 0)
(5.0273 0.0101503 0)
(5.04011 0.033143 0)
(5.04032 0.0302951 0)
(5.07785 0.0197151 0)
(5.06661 0.0167085 0)
(0.00254038 6.53005 0)
(-0.0166309 6.50872 0)
(0.563955 6.62145 1.04878e-18)
(0.873812 6.99751 2.04626e-18)
(0.357098 6.97864 4.40544e-18)
(0.393537 7.03071 -7.03872e-18)
(0.559608 6.71328 0)
(0.484435 6.19959 -3.98181e-19)
(0.484202 6.21572 0)
(1.00878 5.77863 -1.65505e-18)
(0.787021 5.73621 5.19364e-18)
(0.61632 6.32978 4.04574e-19)
(0.911426 6.64305 9.73029e-19)
(0.714886 6.65931 -7.90934e-19)
(1.1891 6.30713 -2.62996e-19)
(0.844884 6.1771 0)
(0.901095 6.09785 4.78128e-19)
(0.0551619 6.25759 -2.90205e-19)
(0.0798053 6.17723 0)
(0.188857 6.16179 1.52417e-18)
(0.0920184 6.16115 0)
(0.184283 6.14926 -1.57752e-18)
(0.12003 6.17463 0)
(-0.00872926 6.23663 3.16301e-20)
(0.00509295 6.24248 0)
(-0.00473194 6.26516 0)
(-0.00128387 6.23926 -3.75999e-20)
(0.035767 6.29275 4.34794e-21)
(0.0384406 6.24847 1.47737e-18)
(0.024928 6.28514 1.01177e-20)
(-0.0288264 6.24529 1.33755e-19)
(-0.0252954 6.24227 9.04062e-20)
(0.00102391 6.35588 0)
(-0.0104911 6.34177 0)
(0.0665213 6.29027 5.74579e-19)
(0.0320202 6.25657 1.57841e-19)
(0.0223579 6.25093 -3.5469e-19)
(0.137752 6.31739 0)
(0.0139102 6.21887 -2.23527e-19)
(0.0173461 6.23873 1.18189e-19)
(0.00677113 6.24792 -3.5939e-20)
(-0.036283 6.25471 -1.63415e-19)
(0.00399523 6.28428 -4.58817e-20)
(-0.00497469 6.2961 2.68774e-19)
(5.01579 0.0291222 -1.06204e-17)
(5.00691 0.0300565 1.20571e-17)
(4.9987 0.0142753 0)
(4.89968 0.264463 1.81774e-17)
(4.88485 0.145514 -1.95238e-17)
(4.77972 0.123406 2.04577e-17)
(4.91331 0.469655 -2.30819e-18)
(5.05453 0.0152475 0)
(5.10246 0.0439245 9.77017e-18)
(5.11288 0.0061783 -9.68073e-18)
(5.0711 0.17704 -6.18626e-19)
(5.07425 0.087494 5.13609e-18)
(4.95485 0.175287 0)
(4.91099 0.154388 -1.86025e-18)
(4.97509 0.106835 0)
(4.99046 0.0978259 0)
(5.02517 0.0151329 0)
(5.02315 0.0216047 0)
(4.98313 0.10084 3.82735e-18)
(5.00615 0.0791646 -8.52174e-18)
(4.98961 0.177829 -4.18331e-18)
(4.95263 0.144427 -4.63812e-18)
(4.9431 0.17353 9.02152e-18)
(5.15176 0.198682 0)
(5.09319 0.427561 0)
(0.0483686 6.21702 -7.87092e-20)
(0.0687199 6.19042 -9.78326e-21)
(0.0647761 6.18408 0)
(0.0455435 6.26613 8.33839e-20)
(0.027801 6.28549 1.54072e-20)
(0.0303374 6.2829 -1.03173e-20)
(0.0209708 6.29646 3.18073e-19)
(0.00515009 6.26194 -1.77669e-20)
(0.00530281 6.28042 7.02838e-20)
(0.0333814 6.28223 -1.36985e-19)
(0.0263534 6.29453 1.65625e-19)
(-0.00272594 6.27499 -3.15756e-21)
(0.041413 6.24467 8.24366e-20)
(1.6411 6.46161 -3.25872e-18)
(1.31149 6.31104 9.63034e-21)
(2.88633 6.83006 -6.06083e-18)
(2.1886 7.0796 -3.20429e-18)
(2.23385 7.09887 0)
(1.21944 5.43384 1.83618e-18)
(1.17855 5.41285 2.87156e-18)
(0.739884 5.63239 3.91274e-19)
(0.747274 5.62257 -5.38188e-18)
(0.988775 5.57261 4.45894e-18)
(1.02244 5.59839 0)
(0.768749 5.64179 -3.60475e-18)
(0.301902 5.85923 6.86832e-18)
(0.51902 5.77943 -4.96213e-19)
(0.260952 5.84995 -9.75844e-18)
(2.35189 5.12948 1.08535e-17)
(1.89685 5.19612 0)
(5.07363 -0.053061 3.90334e-19)
(4.98134 -0.0504374 -2.59556e-19)
(4.99817 0.000822612 -5.08211e-18)
(5.082 -0.00370105 4.915e-18)
(5.09856 -0.0327238 0)
(3.04227 5.781 0)
(3.10824 5.32568 0)
(3.58594 5.04069 0)
(3.13477 5.22683 0)
(2.97921 5.54211 -2.27022e-19)
(2.93892 5.48122 0)
(2.36981 5.3968 6.869e-20)
(1.92417 5.42203 0)
(2.14143 5.34959 -7.63916e-18)
(2.17633 5.40372 4.68643e-18)
(4.12363 0.700163 0)
(4.03062 0.871115 3.091e-18)
(4.37342 0.615403 1.60552e-17)
(4.20143 0.515342 -6.32048e-18)
(4.22926 0.43071 -1.81537e-17)
(4.94894 1.01071 -1.27192e-17)
(4.52006 1.32332 -3.78747e-19)
(4.37161 1.31969 1.4853e-17)
(4.64957 0.859444 1.20669e-17)
(4.50712 0.772024 -2.11033e-17)
(4.44419 0.783088 2.69101e-18)
(4.60969 1.08722 -5.67053e-18)
(4.45048 0.856875 0)
(4.80399 0.714336 1.03127e-17)
(4.88101 0.757177 0)
(4.81705 0.840756 0)
(5.18596 0.519088 4.04917e-18)
(4.91385 0.740755 -2.48726e-19)
(4.92154 1.05196 -2.30035e-18)
(5.23633 0.929094 0)
(4.97213 0.119807 8.33273e-18)
(4.95877 0.155831 1.16043e-17)
(4.9868 0.130419 -8.5304e-18)
(4.99664 0.199711 -7.69313e-18)
(4.97166 0.266183 -1.21997e-17)
(4.65931 0.585403 0)
(4.84313 0.442907 0)
(4.7343 0.17708 -7.42141e-18)
(4.56421 0.271211 3.43286e-18)
(5.00602 0.434172 1.10924e-17)
(4.91363 0.555618 -1.24837e-17)
(4.98438 0.700838 1.19709e-17)
(4.98898 0.645301 0)
(4.99823 0.412387 0)
(4.94473 0.365582 -4.94571e-18)
(5.00687 0.372451 -8.91798e-18)
(2.66428 4.97332 2.2012e-18)
(2.39002 5.12435 -2.9267e-18)
(2.69495 5.48432 -4.44588e-18)
(2.91513 5.96689 7.37008e-19)
(3.05053 5.70378 -9.38603e-18)
(3.2727 5.7488 4.29532e-18)
(3.32726 5.50163 -2.40181e-19)
(2.93374 5.92142 -3.63065e-18)
(2.85743 5.89997 6.18208e-18)
(2.98652 6.35838 8.69996e-19)
(3.37374 6.12362 -1.09675e-18)
(3.48159 6.08709 0)
(2.85077 3.99401 -6.35215e-19)
(1.71256 3.27608 7.94503e-18)
(2.0666 2.68649 1.25373e-17)
(1.49597 2.55464 1.49236e-17)
(2.66131 2.26086 1.4281e-17)
(2.72131 2.48501 -2.30429e-17)
(2.48355 2.56176 1.85873e-17)
(2.36629 2.43864 -7.42653e-18)
(2.49562 2.10517 1.69471e-17)
(3.91988 1.25411 -6.80591e-18)
(3.78731 1.44606 0)
(3.81546 1.34904 3.20599e-19)
(3.34961 2.52834 7.12379e-18)
(3.18855 2.41027 -2.48297e-17)
(2.88542 2.52651 6.61508e-19)
(3.1185 2.32369 0)
(3.35915 3.57411 5.89602e-18)
(3.82003 3.67998 6.09318e-18)
(3.5133 3.93717 -7.40725e-18)
(4.05796 3.69604 -2.35563e-18)
(4.38536 3.96236 -3.75827e-19)
(4.39486 3.9903 3.78403e-19)
(3.8416 3.12273 -1.1037e-17)
(4.21875 3.32462 2.1332e-18)
(4.64213 3.38066 0)
(4.65024 3.27566 -2.70272e-18)
(4.66245 1.51286 3.55185e-18)
(5.36861 1.35113 3.92195e-18)
(4.88579 1.13918 5.72956e-18)
(4.5628 1.64594 -6.95552e-18)
(4.78218 2.03609 0)
(5.17406 1.90895 0)
(4.04863 1.73629 -4.98121e-20)
(4.1736 1.34707 0)
(4.15818 1.26758 7.14914e-18)
(4.15957 1.33784 3.9415e-20)
(4.27966 2.04794 3.66489e-17)
(4.0933 2.40327 9.0413e-18)
(4.04972 2.14773 -9.93156e-18)
(3.74278 2.13971 1.0715e-17)
(3.67995 2.13482 6.44181e-18)
(3.58956 2.10308 -6.69324e-18)
(5.02471 0.065286 8.5342e-18)
(5.06535 0.0243909 0)
(5.06761 0.0325303 5.81754e-18)
(5.01525 0.0467933 -1.43008e-17)
(5.06584 0.0271524 6.08793e-18)
(5.06154 0.0184425 -1.27217e-17)
(5.0377 0.0101271 0)
(5.03248 0.00920038 -2.37146e-18)
(5.06652 0.00858703 6.34459e-18)
(5.04428 0.0123693 -3.64972e-18)
(5.03915 0.0198787 2.39734e-18)
(-0.0167716 6.4476 0)
(-0.0160621 6.27267 0)
(-0.0230737 6.48443 0)
(-0.0203412 6.47075 0)
(0.203265 6.39892 -7.83141e-19)
(0.260143 6.45597 2.28882e-19)
(0.354696 6.2852 -6.12561e-21)
(0.384567 6.42315 -8.66164e-19)
(0.0650745 6.30692 4.97346e-20)
(0.0778883 6.31465 -5.44566e-20)
(0.169926 6.3819 -2.47296e-19)
(0.053899 6.39661 7.02149e-19)
(0.0218703 6.33778 1.13389e-19)
(-0.0142048 6.3054 2.76779e-20)
(0.217681 6.18037 -1.54252e-18)
(0.279111 6.17291 0)
(0.310223 6.12665 1.10817e-18)
(0.423452 6.21423 5.04794e-19)
(0.611484 6.051 -7.03479e-19)
(0.439482 5.81836 0)
(0.475226 5.74079 -5.65493e-18)
(0.690114 5.74503 3.97475e-18)
(0.558451 6.08391 -2.05575e-18)
(0.419653 6.06261 1.1646e-18)
(0.27137 5.95864 0)
(0.0641729 6.28016 -6.53941e-19)
(0.06003 6.27849 -8.80678e-19)
(0.0575994 6.28836 0)
(0.0741191 6.2825 -3.0148e-20)
(0.0756415 6.28269 3.35038e-19)
(0.00428457 6.28729 9.30087e-21)
(0.0153291 6.32011 -1.64044e-19)
(0.0139018 6.291 2.33463e-20)
(-0.0194811 6.22663 7.34881e-20)
(-0.00350327 6.23044 0)
(0.0085198 6.3109 0)
(-0.0128939 6.33048 3.84639e-20)
(0.000535663 6.33037 -8.85934e-21)
(0.00616896 6.32312 0)
(-0.00795839 6.33863 3.38676e-20)
(-0.0235844 6.32316 -7.5496e-20)
(5.00212 0.0589398 0)
(4.99801 0.0609757 -9.38439e-19)
(5.01062 0.059676 -6.83546e-18)
(5.02478 0.106125 0)
(5.00539 0.117692 0)
(5.01618 0.0196087 -1.07095e-19)
(5.02984 0.0189236 1.04833e-17)
(5.01948 0.0268984 1.26326e-17)
(5.02768 0.0295017 0)
(5.02713 0.0282083 0)
(5.01955 0.0585328 6.95537e-18)
(5.01865 0.0453492 0)
(5.03202 0.0427765 0)
(-0.00198783 6.20544 0)
(0.00892818 6.24193 1.65029e-21)
(0.0122822 6.20975 7.23824e-20)
(-0.0033365 6.32623 0)
(-0.0187012 6.28315 5.06039e-20)
(-0.0104683 6.31986 -2.7721e-20)
(-0.00667515 6.3349 0)
(1.7307 5.64639 0)
(1.37621 6.1437 -5.89548e-19)
(1.2377 5.9056 0)
(1.83546 6.09309 -6.8357e-19)
(2.06084 6.45935 0)
(1.87657 6.4606 8.94927e-19)
(2.25473 5.35345 -2.21671e-19)
(2.41053 5.14647 -1.15335e-17)
(2.53618 5.17566 1.24918e-17)
(2.0108 5.18849 2.61736e-18)
(1.92355 5.22902 0)
(2.11772 5.18653 0)
(2.28323 5.15088 0)
(2.12976 5.19906 -9.23711e-18)
(1.56787 5.58002 -5.18461e-18)
(1.80889 5.27505 -1.34267e-18)
(1.92609 5.39625 8.67066e-19)
(1.43769 5.31386 0)
(1.80886 5.27684 0)
(1.49095 5.32583 -2.94423e-18)
(1.72109 5.36321 0)
(3.08276 4.95041 0)
(2.71747 4.50649 -6.30785e-18)
(2.72336 4.53774 -3.5805e-19)
(2.68632 4.80189 0)
(2.73842 4.69963 9.77538e-18)
(3.69847 4.12235 -1.68702e-18)
(3.73674 4.71808 0)
(3.61697 4.56457 2.02512e-18)
(3.22377 4.62774 0)
(3.25402 4.43598 0)
(2.69845 5.53168 -3.6041e-18)
(2.62403 5.54679 -3.03741e-18)
(2.48226 5.32348 5.41686e-18)
(2.4599 5.35647 -1.82396e-18)
(2.69253 5.5336 0)
(2.57077 5.43246 2.25307e-18)
(2.8906 5.47379 -3.28924e-18)
(2.82487 5.3793 -1.74878e-19)
(2.38099 5.35648 0)
(2.46695 5.2527 -1.99458e-18)
(2.6153 5.35985 0)
(4.19495 0.974229 0)
(4.09799 0.919466 0)
(3.88365 1.05549 0)
(4.21466 1.04685 -1.09371e-17)
(4.01395 1.09703 6.60841e-18)
(4.54293 0.270724 -6.99622e-18)
(4.51548 0.467727 0)
(4.38379 0.531619 3.08961e-18)
(4.35921 0.326398 1.15612e-17)
(4.44737 0.285995 -7.73036e-18)
(2.93991 6.63078 9.99504e-19)
(2.98718 6.3989 0)
(2.93047 6.58714 3.22157e-18)
(1.7177 6.81153 -3.36493e-18)
(2.3442 5.52571 -5.16511e-18)
(2.61362 4.11958 8.34962e-18)
(2.74219 4.37662 0)
(2.36322 3.43292 -2.58792e-18)
(2.40874 3.44278 1.33728e-17)
(2.08817 3.01941 -4.08166e-18)
(2.60213 2.81149 4.12222e-18)
(3.03697 2.69828 9.21516e-18)
(3.17355 2.80379 0)
(2.8516 3.12831 0)
(2.67594 2.87253 0)
(4.61469 2.81748 8.41429e-19)
(4.13024 2.57665 -9.0418e-18)
(4.23893 2.79038 5.96204e-18)
(4.35536 2.43602 -6.85353e-18)
(4.89559 2.246 0)
(4.93547 2.67353 -1.48465e-18)
(3.87619 1.89885 -1.50338e-17)
(3.9142 1.80504 -1.94308e-17)
(3.72889 1.96365 1.21618e-17)
(3.73028 1.7995 -1.28849e-17)
(4.07976 1.49441 -8.84764e-18)
(3.934 1.53127 1.10498e-17)
(5.04598 0.0353021 -7.27963e-18)
(5.04562 0.0248318 1.50612e-17)
(5.02489 0.0614889 8.17419e-18)
(5.03217 0.0706805 -9.81661e-18)
(4.98557 0.0760518 0)
(5.03284 0.0158338 -1.69192e-17)
(0.198402 6.31149 1.88271e-19)
(0.167412 6.31454 0)
(0.308536 6.24243 1.15577e-18)
(0.360002 6.28721 -9.61086e-19)
(0.296739 6.35535 1.16052e-20)
(0.251457 6.34191 0)
(-0.031871 6.2373 0)
(-0.0174326 6.27146 -3.61448e-20)
(-0.0133074 6.29912 3.49962e-20)
(-0.0164404 6.28388 3.1918e-20)
(-0.0216956 6.22342 -8.49902e-20)
(-0.0153285 6.24126 3.93669e-20)
(2.18725 5.43139 -6.93806e-18)
(2.05824 5.44301 7.51582e-18)
(1.86616 6.01532 -5.12448e-19)
(1.96544 5.67806 2.73441e-19)
(2.92203 5.81903 0)
(2.40832 6.3618 3.41423e-18)
(2.61196 6.2263 -3.27581e-18)
(2.12155 6.01944 5.08404e-19)
(2.45367 5.63498 0)
(2.58847 5.62658 0)
(1.48927 5.43078 8.02926e-18)
(1.45483 5.35233 1.23433e-17)
(1.60929 5.41042 -8.3923e-18)
(1.36627 5.42675 -1.56851e-18)
(1.25701 5.56941 2.42596e-18)
(0.988847 5.55624 -6.18306e-18)
(2.60191 5.19644 -7.01388e-18)
(2.75438 5.32612 0)
(2.69247 5.25809 -7.3287e-18)
(2.46292 5.38083 0)
(2.43753 5.28565 0)
(2.25242 5.04541 -5.43668e-18)
(2.59593 5.59808 -3.74909e-18)
(2.39794 5.65212 3.69693e-18)
(1.72675 3.593 0)
(2.08947 3.72344 -4.68836e-18)
(2.44773 4.02159 -5.29557e-18)
(1.92309 4.74008 0)
(1.68473 5.13118 3.95274e-18)
(1.67119 4.95396 0)
(3.31005 3.35979 -1.30064e-17)
(3.54222 3.21791 1.89502e-17)
(3.60321 3.06033 -1.98602e-17)
(3.14951 3.16207 -1.76529e-18)
(3.32175 2.95367 -7.78258e-18)
(2.61144 5.376 2.78225e-18)
(2.59187 5.26978 -5.42811e-18)
(2.29259 5.11115 8.73003e-18)
(2.52622 4.81068 -5.96414e-18)
(2.53794 5.06333 -6.40786e-18)
(2.63521 5.14479 -6.03102e-19)
(2.56443 5.11593 5.00343e-18)
(2.55035 4.95764 4.94838e-19)
(2.47151 4.94211 2.98508e-18)
)
;

boundaryField
{
    wall-4
    {
        type            noSlip;
    }
    velocity-inlet-5
    {
        type            fixedValue;
        value           uniform (5 0 0);
    }
    velocity-inlet-6
    {
        type            fixedValue;
        value           uniform (0 5 0);
    }
    pressure-outlet-7
    {
        type            zeroGradient;
    }
    wall-8
    {
        type            noSlip;
    }
    frontAndBackPlanes
    {
        type            empty;
    }
}


// ************************************************************************* //
