/*--------------------------------*- C++ -*----------------------------------*\
| =========                 |                                                 |
| \\      /  F ield         | OpenFOAM: The Open Source CFD Toolbox           |
|  \\    /   O peration     | Version:  4.0                                   |
|   \\  /    A nd           | Web:      www.OpenFOAM.org                      |
|    \\/     M anipulation  |                                                 |
\*---------------------------------------------------------------------------*/
FoamFile
{
    version     2.0;
    format      ascii;
    class       surfaceScalarField;
    location    "5";
    object      phi;
}
// * * * * * * * * * * * * * * * * * * * * * * * * * * * * * * * * * * * * * //

dimensions      [0 3 -1 0 0 0 0];

internalField   nonuniform List<scalar> 
1300
(
18.7548
9.37738
-22.7099
18.7548
-22.7232
9.37738
-22.3767
22.3767
-7.62929
7.62929
9.37742
9.37735
-17.0196
17.0196
-16.8461
16.8461
-14.947
14.947
-8.78941
8.78941
-8.57705
8.57705
9.23209
-9.23209
-18.826
18.826
-10.0345
10.0345
-20.1211
20.1211
16.1592
-16.1592
-18.3223
18.3223
-3.57993
3.57993
-2.56384
21.3186
16.1909
16.1909
-13.5006
13.5006
-7.81048
7.81048
10.4377
-10.4377
34.0556
-34.0556
-11.3457
-12.0036
4.72028
-28.6896
-18.003
-18.003
-14.0674
14.0674
-4.69006
4.68732
15.9872
-15.9872
-7.00062
7.00062
-22.67
0.293301
-22.67
22.2959
0.0807908
22.2959
-8.55258
0.923297
-8.55258
20.7547
-20.7547
6.80703
0.82226
6.80703
16.0664
-16.0664
-9.37979
18.7572
9.37497
-9.37391
30.6925
-9.38086
18.7582
-17.6566
17.6566
-17.6487
0.629141
-17.6487
16.6415
0.378107
16.6415
-19.9201
19.9201
-16.6267
-0.21938
-16.6267
17.1004
-0.254291
17.1004
16.1263
-16.1263
-15.2263
0.279354
-15.2263
14.5893
0.357684
14.5893
0.562037
8.81535
-9.93942
14.6267
-8.81535
0.0259319
8.75294
0.0364689
8.75294
-8.64192
0.0648653
-8.64192
8.45348
0.123577
8.45348
9.92158
-0.689484
9.92158
-9.09887
-0.133221
-9.09887
-11.6806
-11.9898
-19.1422
0.316163
-19.1422
-10.1902
0.155736
-10.1902
9.90805
0.126398
9.90805
-12.3403
12.3403
-21.6278
1.50664
-21.6278
16.1115
0.047714
16.1115
9.36895
9.38582
28.1237
-28.1237
11.9645
-17.9946
-0.327658
-17.9946
-18.6354
-15.4202
18.6354
-0.313173
-4.75088
1.17095
-4.75088
16.1533
0.0376025
16.1533
14.1804
0.408911
-14.1804
0.679752
17.9778
-17.9778
10.3069
3.19372
10.3069
-9.60606
9.60606
8.25159
0.201891
-8.25159
0.441106
10.3627
0.0749545
10.3627
-10.3887
-0.0489494
-10.3887
11.7375
-23.7411
-11.993
18.4437
0.382288
-18.4437
0.440778
16.0007
-0.0135203
16.0007
-15.8499
15.8499
-16.004
0.0168471
-16.004
-7.19738
0.196753
-7.19738
6.96175
0.0388698
6.96175
-21.9987
-0.671282
-21.9987
-22.1699
0.542156
22.1699
0.125952
7.99764
-7.99764
-9.09749
0.544908
-9.09749
-21.4529
-0.545775
21.4529
-0.698185
-20.8155
0.0607301
-20.8155
-16.0346
0.0305086
16.0346
0.031887
16.1081
0.0451912
-16.1081
0.0416941
-9.37145
18.7573
-9.38332
18.7583
-16.5274
-1.12915
-16.5274
18.4725
-0.815941
18.4725
18.7578
1.3633
-18.7578
1.10913
16.4974
0.144085
16.4974
-19.7962
-0.123931
-19.7962
19.9103
0.00978119
19.9103
16.4859
0.0114692
-16.4859
-0.140834
17.3766
-0.276199
17.3766
16.261
-0.134654
16.261
-16.0319
-0.0944171
-16.0319
15.6264
-15.6264
15.4483
0.178078
-15.4483
0.221999
-18.4016
18.3527
-0.0337499
-18.3679
8.71919
8.71919
9.65987
0.261704
9.65987
-9.06835
-0.0305229
-9.06835
11.6548
-23.6478
11.9643
-23.6449
12.0029
-40.6925
11.773
-23.7628
19.61
-19.61
19.3949
0.215088
-19.3949
0.252715
-10.3273
0.137095
-10.3273
-11.2707
-1.0696
-11.2707
13.6438
-1.30356
13.6438
-15.9935
15.9935
-16.0558
0.0623272
16.0558
0.055681
17.681
-0.304426
-17.681
-0.313558
5.70855
1.09848
-5.70855
0.957671
19.0425
-1.0647
19.0425
-17.0733
-0.904561
-17.0733
-10.3695
0.0422458
10.3695
-0.0626186
-9.91993
0.313871
-9.91993
-18.5394
0.171554
-18.503
-10.2172
-10.2172
3.85029
18.477
-16.0077
-0.0242363
16.0077
-0.00693701
15.927
0.0664242
-15.927
0.077185
-15.7593
0.132877
15.7593
0.0905658
-7.42926
0.23188
-7.42925
-7.27729
7.27729
-7.06375
-0.21354
7.06375
-0.101996
8.46092
-0.463282
8.46092
9.72739
0.180659
-9.72739
0.629905
-20.3362
-0.479274
-20.3362
19.0953
-0.622798
19.0953
-16.5473
-0.525984
16.5473
-0.28631
-0.0351168
18.3878
-8.68408
0.0421573
8.68408
-18.4628
18.5049
-8.25703
0.827774
8.25703
1.40285
9.31759
0.288464
-9.31759
0.249242
19.7855
0.12481
-19.7855
0.175517
-10.3404
-0.93029
-10.3404
-15.0919
-1.43552
15.0919
-1.44808
-18.876
-0.260119
19.1361
-18.7524
10.18
0.182656
-10.18
18.6876
-7.59034
-0.407294
7.59034
-0.313055
9.02762
-0.566701
9.02762
20.0617
-1.01917
-20.0617
-0.274509
-19.5228
-0.273346
19.5228
-0.427498
-9.61629
-0.7241
9.61629
-0.588667
-21.2864
21.324
9.40614
-11.643
-12.0981
-27.0632
9.3519
9.40537
21.3164
-25.1659
-15.5267
-24.7251
12.3543
-12.1051
-17.5129
16.8234
36.6411
-36.5804
-28.6725
28.7282
31.8168
-31.7849
9.3885
9.36871
38.353
-37.7239
-38.7492
37.6201
36.4629
-36.6823
38.8853
-39.0092
-44.5029
44.6277
-28.0908
28.3702
-32.3195
32.2251
-33.1008
32.8145
-11.5666
-12.0783
32.3676
-32.0514
41.4568
-41.7844
-40.6569
42.1635
16.8625
4.46149
16.9077
-9.38041
18.7689
-9.3778
18.7839
11.9952
-23.5618
11.6526
-23.7507
21.4988
19.958
-21.1856
-5.87757
-28.971
28.9575
-28.5863
28.6768
42.385
-42.0917
-9.39079
18.7595
-9.3675
18.7729
-16.8898
-11.7827
16.8421
4.47435
19.8633
12.5043
-20.2455
-4.47954
-37.3376
36.3184
-38.8415
37.937
-1.35024
9.62662
-8.27638
6.46025
-1.98063
11.6072
10.3737
10.3432
9.69795
-9.40949
2.40713
-10.6835
-10.2424
-13.112
13.6569
13.0008
-12.1785
28.4814
8.15976
27.7832
-26.4914
-10.089
-26.9707
18.94
9.78824
19.0023
20.116
11.7008
20.1465
15.0702
-15.1013
0.0311191
-15.1227
30.1929
3.6582
-26.9054
-22.4311
24.62
13.733
24.9981
-26.4246
-11.2993
-25.3154
-23.2876
-15.4616
-24.7231
24.637
12.983
23.8211
-29.1361
28.7086
24.33
12.1329
24.0757
-24.2056
-12.4767
-24.3465
37.1846
-9.51481
-27.6698
-25.0996
-19.4033
25.0898
13.7954
27.0316
17.5961
27.2071
12.6666
24.518
-26.462
7.05876
-18.8433
-9.24752
-18.6213
18.2723
10.0978
18.63
-20.2965
-12.023
-20.3207
-20.4451
-12.6557
20.5797
11.6454
-20.9051
-17.9364
21.4311
11.3834
10.9392
-26.4658
12.8236
-24.9019
-22.5638
-9.48762
-22.3111
14.6347
9.2922
-23.9269
-8.92708
38.5554
-18.5974
32.6778
-25.8705
-15.9139
-26.1841
-32.1233
-8.53357
-31.5811
-21.6818
20.7515
-22.3055
21.002
36.8595
-20.2332
-16.6263
-19.5225
-12.2624
19.4808
-2.57316
-18.4413
18.4724
0.327634
19.1116
23.5731
20.9999
-18.9856
-9.60061
-18.9085
18.8042
9.87263
18.9371
31.8376
10.5474
31.9184
-30.4604
-11.6314
-31.1316
20.0379
-19.8411
14.7077
-14.6654
25.1925
12.7444
-24.1278
-13.2098
29.4655
-14.6017
-14.8638
-20.1187
19.5115
0.607171
-8.51141
-2.05117
1.52876
-9.9817
-7.53119
10.1149
0.228248
19.7397
12.2085
-9.11386
9.42773
10.0223
10.2242
-0.0182501
12.7779
-11.9502
26.6362
-12.6583
-13.9778
25.3948
-25.9406
-5.73681
-25.828
20.0912
1.84258
8.58218
-7.41123
-10.4408
-2.6712
-9.81091
7.6956
5.30516
8.79408
4.9828
8.67411
-14.2835
2.58109
11.7024
-9.30069
-9.59741
-17.6046
-5.11849
22.7231
26.2398
10.0787
-25.9653
-1.0054
13.7392
-13.6129
-3.71651
-13.8881
10.324
-14.0405
-16.8814
-9.37948
26.2608
-16.4981
-2.41038
16.4317
2.57064
-18.6677
-10.3034
18.6508
1.49568
-15.2332
30.2833
-15.0501
-24.8338
12.605
17.5878
22.3933
-23.6865
12.0713
11.6152
-6.09867
21.2737
3.7244
21.4178
-32.7756
21.4762
27.6828
14.4807
-29.0461
3.73065
-29.0449
33.6283
-29.5116
-4.11676
17.2488
16.3795
19.0447
17.8148
-13.8723
32.917
-4.81274
-24.6988
33.8577
-19.377
20.5085
-39.8854
-38.3233
13.6245
-25.0745
30.8094
-5.73498
-8.98404
-20.1521
34.0585
-3.0462
-31.0123
20.7749
-19.0702
-19.1785
38.2487
-28.585
31.6551
-9.38378
-22.2714
-24.3863
-14.6229
24.6597
4.04896
-35.2458
42.3046
-10.7278
21.1756
2.90014
20.8994
13.6831
-21.1174
7.43426
14.9018
-24.2856
8.92788
-30.0453
-17.4261
34.0508
-16.6247
-26.9137
-24.1097
-2.80405
7.16061
35.144
-24.7567
18.9986
5.75816
16.2481
2.68898
-16.4262
-2.19515
1.67084
21.8593
-23.5301
20.3009
20.7098
16.4195
5.43984
18.7325
10.225
-18.7255
-1.59518
-19.9421
7.28642
-8.29677
-17.6164
24.9028
-19.7313
2.11494
-13.0917
-17.2498
30.3415
-22.3393
14.9747
15.3086
24.8473
-23.9151
6.66532
-11.8429
-12.0722
13.066
-21.3628
9.44099
15.4618
20.8244
2.88794
17.3114
16.7394
-26.6036
1.70168
29.2437
-24.7642
6.10013
21.107
-25.0987
0.988989
-21.3221
3.91743
-22.5148
-20.0094
22.9073
-31.4409
-16.9781
29.1407
2.77772
-29.2667
-2.31447
-15.0974
-6.58434
-15.8215
-6.99367
-15.3118
-20.866
-4.37005
-16.496
16.3814
-16.4611
-8.26197
17.9092
3.09275
-17.8169
17.4096
-18.1578
17.5911
0.520694
17.9517
21.5206
9.25819
-11.853
21.1112
-22.8759
33.4233
-39.2891
16.4132
19.36
-30.9913
-19.9292
12.2701
7.76782
12.309
21.4291
-24.2403
2.81118
-23.4859
27.9818
-4.49593
-36.5946
13.1088
-15.1655
13.4543
1.25342
13.5913
3.34528
11.673
-15.0182
-11.3201
-11.3828
-11.0846
-16.358
27.4426
5.64313
-16.1154
10.4723
-16.8303
22.4734
-0.366755
-15.7487
25.4318
-13.7588
26.6852
-17.197
9.48817
15.7067
26.8333
-11.1266
20.8878
-8.14337
8.68001
-19.8066
-7.67802
-14.6146
24.7125
-15.7269
17.8419
-1.18231
19.0242
-19.3872
4.78546
-2.96771
17.7421
18.4218
20.4766
-15.0368
14.1937
-22.3371
-5.61286
-19.4492
-3.98739
-0.469813
-18.2139
18.6837
17.8896
-18.3594
-9.52137
19.885
-10.3636
16.3527
-10.1316
-6.22109
-9.73101
-10.1101
9.49913
3.2788
19.6315
1.41726
-11.5489
-10.5329
-9.13006
15.4948
11.1414
-9.52424
10.1314
7.99548
0.586695
2.99954
5.79454
9.33176
-6.33223
0.659011
8.67275
-6.75221
10.1158
3.62346
-10.2965
0.485547
-6.72263
17.0466
4.97976
-10.2849
3.9527
4.56255
-17.2209
23.099
-12.2594
-10.8396
27.6615
5.45778
-17.7171
20.3702
-18.5276
11.1968
-16.3152
-6.52039
-25.048
-16.8883
-11.866
22.3384
-15.5766
25.6552
5.45698
-24.6498
30.1068
-17.4638
8.08435
-14.632
18.2554
-5.00956
-9.6224
13.4173
12.8436
-14.2302
0.342141
-0.812974
11.1268
-11.9398
-2.91366
-12.2143
-22.4958
23.9915
-10.3162
22.3875
10.795
-9.33496
31.7224
8.98019
-18.3151
-15.8536
-18.264
-6.69992
15.6934
-3.38754
-20.9589
-25.6589
20.9475
0.470359
-32.8463
36.8219
-3.97563
-19.1132
-2.36301
19.6118
-26.8047
2.51905
-17.8768
18.9451
22.6695
23.1399
-30.5938
-0.418495
-17.6108
4.18306
-21.7938
20.5626
-9.70372
23.3282
-26.306
18.0441
-23.2133
19.2114
-2.58242
19.8178
-12.3835
7.85198
-22.4749
-18.4259
24.9666
-12.8337
27.8668
-14.6871
42.5539
-25.415
24.8549
17.699
-5.1279
-21.0562
-24.3937
19.2658
0.461262
21.3606
24.1749
-13.9499
22.5797
10.806
-22.649
-10.5567
-31.7192
9.07028
-16.4106
-9.23897
18.3093
15.6083
18.2973
6.23707
-16.1022
23.8113
-26.6153
-7.1866
-12.8228
24.012
-4.74625
14.4167
-27.2395
-8.09813
17.7452
-1.35342
-16.3918
2.48796
-19.466
8.21268
-27.6787
23.2282
-25.5427
5.09521
-20.2607
-12.7217
-13.0348
-5.2594
-12.8984
-17.1567
11.8973
-4.04792
13.3617
-19.7167
18.3633
-8.26512
20.1624
-13.5655
-2.25606
14.1542
3.43699
23.5994
1.93602
-21.8652
-10.391
20.11
-9.71895
5.10378
-16.2779
3.83211
11.3395
16.3221
-31.4307
0.439369
-21.4258
-9.23249
17.0003
10.6525
28.5421
4.30177
18.7139
-1.71363
23.0157
10.5953
10.4933
-14.1179
16.929
4.56584
20.9791
-4.24838
13.7365
9.34297
9.49871
4.11415
11.267
7.15482
16.0525
1.03422
-10.3485
8.27355
-17.4036
-3.27531
-17.1419
-0.3185
10.6488
-10.9673
16.2899
-5.14851
6.57093
-0.344585
-10.5989
10.9435
-14.3224
-10.0122
-1.33943
-7.85232
11.805
9.19427
-10.4656
-3.85685
1.60484
-18.4931
14.7104
-14.3683
-1.52467
28.5821
-13.2071
1.26736
-5.12278
-10.947
-13.6182
13.1326
30.2561
1.46636
15.206
25.4579
15.1545
1.20463
15.5324
-21.2674
-14.5129
-21.6859
-1.12325
18.4885
7.37209
27.7719
25.0711
20.3248
-6.91471
-33.5301
26.2439
-9.31485
21.748
-5.35618
-22.3225
22.7206
10.7027
-25.4984
-0.0443444
-22.3669
-31.6817
-1.13675
19.5
-22.4627
20.2066
13.6223
2.8737
-10.745
-2.2898
10.9585
-0.465195
22.5505
-1.23459
-17.1676
18.4022
-9.41418
6.13886
1.12482
9.00659
12.0683
6.91977
-10.2479
-21.2151
-9.48735
-7.73353
-20.327
2.39611
-11.5904
13.0195
-6.8806
6.79837
11.5216
18.0925
-3.79181
-14.5676
14.1554
-7.35708
10.7355
)
;

boundaryField
{
    wall-4
    {
        type            calculated;
        value           uniform 0;
    }
    velocity-inlet-5
    {
        type            calculated;
        value           uniform -18.7548;
    }
    velocity-inlet-6
    {
        type            calculated;
        value           uniform -9.37738;
    }
    pressure-outlet-7
    {
        type            calculated;
        value           nonuniform List<scalar> 8(22.7099 22.7232 23.3493 23.9693 23.6703 23.7305 23.6191 23.776);
    }
    wall-8
    {
        type            calculated;
        value           uniform 0;
    }
    frontAndBackPlanes
    {
        type            empty;
        value           nonuniform 0();
    }
}


// ************************************************************************* //
