/*--------------------------------*- C++ -*----------------------------------*\
| =========                 |                                                 |
| \\      /  F ield         | OpenFOAM: The Open Source CFD Toolbox           |
|  \\    /   O peration     | Version:  4.0                                   |
|   \\  /    A nd           | Web:      www.OpenFOAM.org                      |
|    \\/     M anipulation  |                                                 |
\*---------------------------------------------------------------------------*/
FoamFile
{
    version     2.0;
    format      ascii;
    class       volVectorField;
    location    "5";
    object      U;
}
// * * * * * * * * * * * * * * * * * * * * * * * * * * * * * * * * * * * * * //

dimensions      [0 1 -1 0 0 0 0];

internalField   nonuniform List<vector> 
918
(
(4.98419 -0.000820424 0)
(0.00499765 4.96587 0)
(-0.0342124 6.03537 0)
(4.97873 0.00174541 0)
(-0.0142924 6.05862 -5.3933e-21)
(-0.00682343 4.94766 -3.28883e-17)
(4.21808 5.96822 1.01038e-17)
(2.679 1.29529 -2.96263e-19)
(4.9999 -1.63869e-05 0)
(0.366392 5.05209 0)
(-0.00247609 5.00202 0)
(4.51047 -0.0100424 0)
(0.0103125 4.9293 0)
(-0.0365778 4.79593 0)
(-0.0915165 6.22954 -5.19261e-18)
(-0.0114745 6.00064 -5.54467e-20)
(3.31786 0.637319 1.94272e-17)
(1.00243 6.3259 7.51917e-18)
(4.96127 0.00704667 0)
(-0.0512835 5.5163 0)
(1.34329 1.3608 -1.54617e-17)
(5.00212 -0.00433548 0)
(5.00021 -0.00889798 0)
(4.97465 -0.00648224 0)
(4.11245 0.0651344 0)
(0.0674192 4.26494 0)
(-0.0240523 4.91336 1.4811e-17)
(-0.0585533 6.03704 0)
(-0.0610999 6.2296 0)
(-0.0563376 6.03211 0)
(-0.0228096 6.38892 0)
(-0.0183369 6.09459 4.65002e-21)
(-0.0128254 5.97986 0)
(-0.0217859 4.98718 -1.26807e-21)
(-0.0171893 5.0055 2.51269e-17)
(0.00219072 5.00077 0)
(4.88893 -0.00852165 0)
(2.08488 3.05074 4.04624e-18)
(4.54011 5.86286 -1.37622e-17)
(5.18055 5.17015 1.61299e-17)
(3.6545 6.28876 -2.05094e-18)
(3.40311 6.44668 1.20361e-17)
(2.74657 1.61377 2.89517e-19)
(2.90187 1.24558 0)
(6.09388 3.09833 0)
(2.58497 1.50426 1.4258e-18)
(2.44691 1.4111 -1.43092e-18)
(4.92233 -0.00703523 0)
(5.00026 0.000325162 0)
(4.99992 0.000584154 0)
(5.004 -0.00815066 0)
(5.00115 -0.000742299 0)
(5.0002 6.46489e-05 0)
(0.207212 5.70872 -5.01857e-18)
(0.120417 5.51288 0)
(0.540833 5.26948 0)
(0.0733988 5.37734 0)
(0.248494 4.91997 0)
(0.00081965 6.12766 0)
(-0.0522323 5.34405 0)
(0.0337797 4.92097 0)
(-0.0634832 5.39869 0)
(-0.0277265 5.09251 0)
(4.93046 -0.00171962 0)
(4.72246 0.0625796 0)
(4.6221 0.0028479 0)
(4.64313 0.0685459 0)
(4.4153 0.0140493 0)
(0.0147053 5 1.28116e-17)
(0.0121124 5.00534 0)
(0.00705192 5.00415 0)
(0.0137032 4.99664 1.5331e-22)
(0.00818627 4.95776 -1.87629e-17)
(0.0151407 4.98274 0)
(0.00886981 4.90305 0)
(0.0453028 4.89874 3.9772e-23)
(-0.0159033 4.83319 0)
(0.076139 4.85743 0)
(-0.0518244 4.70993 0)
(0.891581 7.23889 0)
(-0.238839 7.53453 0)
(0.399282 6.37971 4.86987e-18)
(0.0663713 5.61904 0)
(-0.0423065 6.31067 0)
(-0.011831 6.16716 5.46764e-20)
(-0.0110408 6.0178 -1.03062e-19)
(3.40706 0.684763 -6.90654e-18)
(3.41565 0.288772 -6.73231e-18)
(3.27655 0.864074 -2.01507e-17)
(3.25108 0.631718 -1.38168e-17)
(0.961991 4.07993 0)
(1.39069 6.80224 -8.5219e-18)
(1.72413 6.75954 1.36313e-17)
(4.9864 0.0103588 0)
(4.93909 0.00669952 0)
(5.00029 0.000873934 0)
(5.00242 0.00963714 0)
(5.00313 0.0104131 -3.82554e-17)
(4.99146 0.00934877 2.69916e-17)
(-0.0882808 5.72556 0)
(-0.0551073 5.40184 0)
(-0.0729313 6.02791 0)
(-0.0803238 5.80306 0)
(-0.0495296 5.6194 0)
(1.68849 1.56508 4.7743e-18)
(1.78644 1.45015 0)
(4.99521 -0.00708946 0)
(4.95326 -0.00645158 0)
(4.48973 0.0556473 0)
(4.31569 0.0566741 0)
(4.28946 0.0472701 0)
(5.43049 -0.079102 0)
(4.09497 0.0808696 0)
(3.79986 0.146276 2.52176e-17)
(0.0104434 4.99232 1.48025e-17)
(0.130759 4.8 0)
(0.209394 4.7395 0)
(-0.0642721 4.55687 0)
(-0.00502769 4.98389 1.48899e-17)
(-0.028041 4.90932 0)
(-0.012394 4.98747 -4.43703e-17)
(-0.0187943 4.92549 1.48493e-17)
(-0.0551918 6.34291 0)
(-0.0442049 6.32777 0)
(-0.0125861 6.15674 -1.46687e-21)
(-0.016186 6.11721 0)
(-0.0123475 5.99098 0)
(4.95533 0.00669173 0)
(4.88923 -0.0102462 0)
(4.84238 0.007544 0)
(4.96023 0.00384357 0)
(4.89273 -0.0102426 0)
(2.27876 4.12847 -5.04582e-18)
(2.20266 3.53225 0)
(2.08032 3.92645 6.20594e-19)
(1.97868 2.74004 0)
(4.80662 5.27675 -3.94092e-18)
(5.39044 4.69448 7.72314e-18)
(2.10091 6.85822 0)
(2.86742 6.67815 0)
(2.5826 6.75243 0)
(1.71706 2.6861 -3.91402e-18)
(3.00586 1.30623 0)
(3.04244 1.00765 3.81324e-18)
(5.51768 4.38506 0)
(5.65989 3.75305 0)
(5.9716 3.54846 -7.74176e-18)
(6.21962 2.85494 0)
(6.4473 2.15851 1.29033e-18)
(4.96357 -0.00279902 0)
(4.96782 -0.00700037 0)
(4.90523 -0.0108483 0)
(4.98615 -0.007712 0)
(4.97699 -0.00678246 0)
(4.93638 -0.00681035 0)
(5.00027 0.00292534 0)
(5.00081 0.00182982 0)
(4.99988 0.00110401 0)
(0.168933 5.79313 2.76833e-18)
(0.336533 5.46533 0)
(0.0794049 6.03517 4.56376e-18)
(0.114366 5.88047 -3.80217e-18)
(0.728345 6.22388 -6.23846e-18)
(0.189465 5.70677 0)
(0.525306 5.74714 0)
(0.0330333 5.30742 0)
(0.170303 4.85854 0)
(-0.00524588 6.26777 -7.79726e-21)
(0.0197841 6.12907 0)
(-0.0108489 6.28058 -3.6363e-19)
(-0.00918003 6.11545 6.70098e-19)
(0.00603629 5.2794 0)
(-0.0308829 5.29912 0)
(0.0917772 4.87544 0)
(-0.0742716 5.46947 0)
(-0.0432856 5.19469 0)
(5.01442 0.0369794 0)
(4.97075 0.0154911 0)
(4.97845 0.0235625 0)
(4.90534 -0.00756582 0)
(4.75701 -0.0054796 0)
(4.84186 0.0484061 0)
(4.78981 0.0582946 0)
(4.69377 -0.00159158 0)
(0.0070482 5.06165 -1.24059e-19)
(0.00993086 5.06311 0)
(0.016833 4.96973 0)
(0.00451395 4.87721 0)
(2.28218 8.462 0)
(3.03041 7.37344 2.21725e-18)
(0.227488 5.75588 0)
(0.04916 5.24659 0)
(-0.0492302 6.29935 0)
(-0.0468378 6.2998 0)
(-0.0459775 6.29716 0)
(-0.0262544 6.36445 2.31661e-20)
(-0.0375025 6.3359 0)
(-0.0325891 6.33868 0)
(-0.00759265 6.04029 2.03183e-20)
(-0.0082122 6.21074 1.49153e-19)
(-0.00812117 6.18934 1.05323e-19)
(-0.00869896 6.02213 0)
(3.48242 0.582264 9.32208e-18)
(3.53275 0.412136 -9.14191e-18)
(0.656471 4.63707 0)
(1.17963 3.69411 -2.52047e-18)
(0.541098 4.84634 -7.67041e-18)
(0.762029 4.46906 7.68142e-18)
(4.89193 0.006798 0)
(4.96251 0.0143575 0)
(4.97199 0.01272 0)
(4.9171 0.00650903 0)
(-0.0847003 5.54687 0)
(-0.0909329 5.62995 0)
(-0.0540215 5.29975 0)
(2.27377 1.71298 1.25719e-17)
(2.04833 1.55263 -1.43247e-17)
(2.12805 1.44413 0)
(5.9163 0.458766 2.77192e-19)
(5.98048 0.114056 0)
(5.5105 0.193343 0)
(5.17174 0.0336521 0)
(3.66712 0.455582 0)
(3.78237 0.269512 -4.01842e-17)
(3.63182 0.125523 1.71265e-17)
(0.0506002 5.04647 1.39308e-17)
(-0.0177982 4.9446 1.88083e-19)
(0.00812427 5.05191 -2.95984e-19)
(0.0145227 5.04743 1.05389e-17)
(-0.0147829 4.99771 4.73644e-19)
(-0.0134438 4.94884 -1.88928e-21)
(-0.0173243 5.01352 -8.33904e-18)
(0.0119176 5.02859 5.69476e-18)
(0.00586811 5.03465 -9.32671e-18)
(4.96851 0.0189217 0)
(4.96109 0.0132882 0)
(4.89479 -0.00493494 0)
(4.94746 0.0170121 0)
(4.92715 0.0210312 0)
(4.86667 0.00690496 0)
(4.88097 0.0348177 0)
(4.90125 0.0275264 0)
(4.80857 -0.00226275 0)
(2.47952 4.4321 -4.32587e-18)
(2.26219 4.11722 0)
(1.84211 2.58683 1.1642e-18)
(1.77008 3.79518 9.02076e-18)
(1.91837 3.83637 -5.33601e-18)
(1.89227 2.60552 1.02721e-17)
(1.32987 3.93442 1.9205e-17)
(1.59294 2.8636 3.8011e-18)
(3.27136 1.01845 1.48702e-17)
(3.09938 1.307 3.57882e-18)
(3.18364 0.959689 7.49874e-18)
(6.29571 2.1832 3.80049e-18)
(6.46822 1.601 3.79828e-18)
(0.0514293 6.13782 1.75799e-18)
(0.0800554 6.01068 0)
(5.238 0.110185 0)
(5.09102 0.0592006 0)
(5.04165 0.0175332 0)
(0.00687457 5.07802 0)
(0.0304801 4.93217 2.11065e-17)
(0.0214502 4.95395 0)
(-0.00406422 4.8543 -2.0824e-17)
(0.00515919 5.09163 4.81186e-18)
(0.00879967 5.07716 0)
(2.50541 4.73419 2.61206e-19)
(3.16125 5.92836 -8.8908e-19)
(2.3772 4.92914 -2.12769e-18)
(0.0957315 5.16154 -1.36504e-17)
(0.139987 5.37577 0)
(0.0478734 5.08933 0)
(-0.0185155 6.23895 -7.05849e-20)
(-0.00964932 6.23157 -3.55005e-19)
(-0.00898143 6.08086 -4.50227e-20)
(0.829412 4.33725 7.91361e-18)
(1.31145 3.46478 -5.58389e-18)
(0.278712 5.52067 5.09447e-18)
(0.392155 5.18542 -6.42113e-18)
(0.535797 5.0071 8.18765e-19)
(0.0333158 5.12964 -3.49239e-17)
(0.037399 5.1226 3.78351e-17)
(0.00771587 4.98403 1.49582e-17)
(0.0216777 5.00191 -1.49579e-17)
(-0.0187198 4.91721 -1.52324e-17)
(0.0189232 5.0937 -3.74676e-17)
(0.0103183 5.10003 3.91218e-17)
(1.47809 3.78138 0)
(1.62615 3.78045 -1.92655e-17)
(1.76744 2.66667 8.5683e-18)
(1.18927 3.94769 1.05557e-17)
(1.50395 2.98917 -1.65087e-17)
(6.33114 0.878396 9.80138e-20)
(6.46161 1.31989 0)
(6.44784 0.644169 1.32236e-18)
(0.0103444 6.26405 -1.14518e-20)
(0.024981 6.21097 0)
(0.0477809 6.07444 0)
(0.935458 4.20046 -2.92264e-18)
(1.04566 4.1246 -6.73456e-18)
(1.41106 3.17508 1.24106e-17)
(5.00977 -0.0112963 0)
(5.00808 -0.00644936 7.50889e-18)
(-0.058618 6.32613 0)
(-0.0855541 6.35499 0)
(5.00219 0.00441524 8.93594e-21)
(5.00397 0.00875655 1.51781e-17)
(-0.0242484 6.37313 -2.65699e-20)
(-0.0201288 6.37765 0)
(0.280515 5.44217 1.26712e-17)
(1.14719 6.47054 0)
(5.17161 3.39981 -4.07786e-19)
(5.00961 0.0148129 -6.85318e-21)
(5.02755 -0.00727444 0)
(5.0016 0.00155122 2.65849e-21)
(0.278662 6.60333 0)
(0.259552 6.41468 0)
(-0.0618191 6.41649 0)
(0.0186285 6.48614 4.66405e-19)
(-0.0413506 6.45286 1.77465e-19)
(4.91191 0.0951034 9.47167e-20)
(5.09879 0.0342135 0)
(5.20878 0.123736 0)
(-0.0474451 6.30641 0)
(-0.0121847 6.39658 0)
(-0.0709695 6.34973 0)
(1.01463 7.04231 -4.24244e-18)
(5.01105 -0.0100148 0)
(5.01403 -0.0151518 0)
(5.00263 0.00227197 9.14726e-18)
(5.00618 -0.00402811 -1.09331e-17)
(5.00125 -0.000528895 0)
(-0.0520745 6.30193 0)
(-0.0531189 6.31115 0)
(-0.0508412 6.3065 0)
(-0.0724302 6.34711 0)
(-0.0737935 6.32561 0)
(-0.0809991 6.33914 0)
(5.05697 0.00092697 0)
(4.99416 0.0232564 1.20138e-20)
(3.43208 6.09909 7.27544e-18)
(5.00243 0.00210762 -8.68893e-18)
(5.00353 0.00555068 1.03663e-17)
(5.00135 0.00294743 0)
(5.00964 0.0130162 9.15103e-18)
(5.00523 0.00947863 -1.16305e-17)
(5.00739 0.0130039 0)
(-0.0157721 6.3967 0)
(-0.0201007 6.38473 4.53097e-20)
(-0.0166684 6.38944 -3.45843e-20)
(5.74457 1.31287 7.02341e-18)
(5.4888 0.414489 0)
(0.430781 4.9266 -2.26503e-17)
(0.277196 4.63881 -1.50716e-18)
(0.707294 5.40149 2.96214e-17)
(0.553287 5.56254 -8.62083e-18)
(0.606911 5.68778 0)
(0.139234 5.21349 5.67651e-18)
(0.381584 5.2526 2.24193e-17)
(0.374689 5.39755 -1.07517e-17)
(0.159366 5.06428 0)
(3.33259 1.78918 0)
(3.01882 2.04259 0)
(5.23046 3.48507 2.94838e-19)
(4.95705 4.19959 8.30605e-19)
(5.49947 2.8685 0)
(5.49981 2.76899 0)
(5.01218 0.0159357 -1.75086e-17)
(5.01136 0.017626 2.03054e-17)
(5.03567 -0.00588705 0)
(5.03125 -0.0132859 0)
(5.00688 0.00774193 0)
(5.00974 0.00826442 0)
(5.00406 0.0038768 0)
(5.0085 0.00991581 0)
(5.00593 0.00759232 0)
(5.00424 0.00767373 0)
(0.255878 6.57209 0)
(0.119566 6.55106 0)
(0.389326 6.7541 0)
(0.342418 6.80919 0)
(0.285065 6.40743 0)
(0.328617 6.47137 -2.73821e-18)
(0.211538 6.49189 0)
(0.172002 6.48973 1.38971e-18)
(0.0938007 6.50124 -1.21601e-18)
(-0.0667717 6.41248 0)
(-0.0734531 6.4112 0)
(-0.0392315 6.42472 0)
(-0.0386876 6.42762 0)
(-0.021443 6.35876 -1.39321e-19)
(-0.0380831 6.46201 1.9845e-19)
(-0.00944576 6.49832 3.53655e-19)
(-0.0189074 6.49205 0)
(-0.0415201 6.45445 -3.89219e-19)
(-0.0368269 6.44371 -1.83335e-19)
(-0.0195619 6.3514 1.19399e-19)
(-0.0527688 6.40874 -3.24545e-19)
(-0.0272527 6.44199 -4.5946e-19)
(4.94364 0.113234 1.78839e-17)
(4.93888 0.0562169 -2.22607e-17)
(4.9111 0.140863 -1.87984e-17)
(4.86183 0.115359 2.42589e-17)
(5.10108 0.0389077 0)
(5.07499 -0.00665581 0)
(5.19818 0.151094 0)
(5.1252 0.0618319 0)
(5.11499 0.0329377 0)
(5.41829 0.354024 0)
(5.26531 0.214912 0)
(5.26452 0.183752 0)
(-0.0343268 6.36402 -4.02902e-21)
(-0.041434 6.32417 0)
(-0.036583 6.33483 0)
(-0.0180022 6.40605 5.82959e-20)
(-0.0136989 6.40933 -2.60466e-21)
(-0.0451857 6.32003 2.90064e-20)
(-0.0531925 6.31641 -3.04226e-20)
(-0.0623028 6.33176 0)
(-0.0606429 6.32532 0)
(-0.0618957 6.31996 0)
(-0.0675789 6.35863 0)
(-0.0726335 6.37806 0)
(1.57521 7.10372 6.44246e-18)
(1.54932 7.1391 2.92387e-18)
(1.26578 6.04258 -1.98909e-18)
(0.743075 6.2453 5.06911e-18)
(1.19051 5.88541 9.20157e-19)
(5.02721 -0.00407903 0)
(5.01829 -0.00674867 0)
(5.01922 -0.0143178 0)
(5.00796 0.00312256 0)
(5.00458 0.00111161 0)
(5.00709 -0.00176566 0)
(5.01173 -0.00092258 0)
(5.01492 -0.00157348 0)
(5.00315 0.0345092 1.66021e-17)
(5.00318 0.0208341 -2.04243e-17)
(4.99973 0.0369194 -1.85422e-17)
(4.98269 0.0398263 2.05122e-17)
(3.41447 6.1975 0)
(2.88866 6.59929 6.23109e-18)
(4.05559 5.68762 2.69367e-18)
(4.05535 5.70743 -3.53789e-18)
(3.12466 5.55091 1.59134e-17)
(4.1278 0.633465 1.06548e-17)
(5.51195 0.466949 0)
(5.70705 0.869612 -5.3051e-18)
(5.57735 0.78058 -2.11369e-19)
(4.81625 0.598061 0)
(0.883619 5.16839 1.54554e-17)
(0.75907 4.67443 -2.76558e-17)
(0.509862 3.34112 1.72711e-17)
(0.987909 1.49067 -7.78401e-18)
(0.975656 6.36671 6.00235e-18)
(0.659016 6.00393 0)
(0.740879 6.14182 -7.8132e-18)
(1.09721 5.37694 -4.17924e-17)
(1.27982 5.77648 0)
(0.0567395 5.11837 9.80948e-19)
(0.0806312 5.1285 -1.00372e-17)
(0.061012 5.10781 1.60367e-17)
(0.188423 5.15485 0)
(0.191816 5.21813 0)
(3.40779 5.68693 0)
(2.77949 4.01111 -8.66244e-18)
(4.57112 5.02818 -1.33553e-18)
(4.6226 5.11574 0)
(4.07129 4.45941 -1.08433e-18)
(5.00289 4.33076 5.34032e-19)
(2.03368 2.13273 -2.00033e-17)
(3.55474 1.7273 -6.01119e-19)
(3.4491 1.54194 7.85245e-18)
(3.02953 2.18773 6.24794e-19)
(2.6666 2.02091 -2.53855e-17)
(3.3371 1.81527 0)
(3.39027 2.1576 1.22869e-17)
(3.36677 2.13256 0)
(3.21719 2.08372 0)
(3.09444 1.804 0)
(3.75775 2.9595 6.7112e-18)
(5.77507 1.38635 -5.77619e-18)
(5.71832 2.07987 0)
(5.6533 1.98597 0)
(3.83862 1.16601 1.19662e-17)
(3.98059 2.61701 -6.92021e-18)
(3.58217 2.43668 1.18857e-17)
(4.42113 2.07462 -1.30179e-17)
(5.00921 0.0237421 1.14246e-17)
(5.01112 0.019006 -1.00822e-17)
(5.00879 0.0167569 0)
(5.05663 0.00578508 0)
(5.04252 -0.00210936 -1.14159e-17)
(5.04444 -0.0131078 1.1273e-17)
(5.02046 0.0307741 0)
(5.01351 0.0360337 0)
(5.01026 0.0107335 0)
(5.0105 0.014087 0)
(5.01508 0.0140703 0)
(5.01412 0.00974487 0)
(0.101073 6.53973 0)
(0.0440704 6.49462 0)
(0.559874 6.62531 1.16389e-18)
(0.966355 6.98722 2.08441e-18)
(0.498099 6.96168 4.44943e-18)
(0.592076 6.99336 -7.32968e-18)
(0.644946 6.6966 0)
(0.542151 6.21455 -1.78403e-19)
(0.487764 6.22324 0)
(1.07067 5.89232 -1.35362e-18)
(0.839598 6.00564 5.26893e-18)
(0.738235 6.22841 1.54291e-19)
(0.966683 6.59046 9.53122e-19)
(0.845985 6.59164 -7.86185e-19)
(1.27134 6.23656 -2.04687e-19)
(0.935122 6.05413 0)
(1.02074 6.01631 4.40061e-19)
(0.0467455 6.41901 -2.50878e-19)
(0.0919926 6.48391 0)
(0.154648 6.3807 1.39922e-18)
(0.11615 6.41161 0)
(0.154716 6.49179 -1.51755e-18)
(0.11185 6.50802 0)
(-0.0148107 6.3755 1.14031e-19)
(0.0116353 6.331 0)
(0.000646194 6.42276 0)
(-0.0174245 6.42887 -1.37813e-19)
(0.0123763 6.49788 -3.11525e-20)
(0.0599307 6.52269 1.37564e-18)
(0.0363289 6.52118 8.15504e-21)
(-0.0490197 6.35294 7.16754e-20)
(-0.046749 6.34221 5.2602e-20)
(-0.0715959 6.40777 0)
(-0.0719535 6.40483 0)
(0.0435753 6.25724 3.86342e-19)
(0.07434 6.4118 5.76731e-20)
(0.0392382 6.31233 -2.05898e-19)
(0.116548 6.29949 0)
(-0.033592 6.36787 -1.61743e-19)
(-0.0350334 6.39897 7.98713e-20)
(-0.0339553 6.39774 -2.77691e-20)
(-0.0511497 6.35479 -9.45566e-20)
(-0.0453045 6.41779 -4.2517e-20)
(-0.0503529 6.42462 2.48242e-19)
(4.9814 0.0455042 -1.08757e-17)
(4.96207 0.0765124 1.17613e-17)
(4.96269 0.0468081 0)
(4.89802 0.231037 1.76037e-17)
(4.86394 0.18304 -2.00306e-17)
(4.76295 0.172565 2.24546e-17)
(4.88926 0.407592 -2.33054e-18)
(5.06901 0.00283236 0)
(5.0784 0.00822451 9.99285e-18)
(5.05704 -0.0109915 -1.04646e-17)
(5.14069 0.165929 -6.42009e-19)
(5.1137 0.100158 5.43327e-18)
(5.12912 0.244711 0)
(5.09944 0.193053 -2.00498e-18)
(5.0186 0.138355 0)
(4.99565 0.114282 0)
(5.02133 0.038558 0)
(5.01178 0.0391422 0)
(5.06678 0.107716 4.11248e-18)
(5.05388 0.0784028 -9.10307e-18)
(5.09695 0.115196 -4.15694e-18)
(5.08815 0.115945 -4.77522e-18)
(5.16079 0.267853 9.46386e-18)
(5.23969 0.229772 0)
(5.26716 0.422196 0)
(-0.031992 6.3691 -3.7313e-20)
(-0.0394309 6.33755 -4.15883e-21)
(-0.040046 6.33898 0)
(-0.0255722 6.37844 3.8695e-20)
(-0.0290589 6.36546 8.13222e-21)
(-0.0274202 6.3778 -1.07255e-20)
(-0.0322183 6.43904 1.629e-19)
(-0.0337511 6.41695 -1.12743e-20)
(-0.038893 6.41353 5.23303e-20)
(-0.019839 6.42394 -8.59159e-20)
(-0.023965 6.42737 9.39424e-20)
(-0.0486102 6.32908 -2.36024e-21)
(-0.046634 6.33223 4.25001e-20)
(1.68991 6.52375 -3.25482e-18)
(1.35587 6.26495 -1.6182e-19)
(2.88193 6.74452 -5.99629e-18)
(2.22105 7.03914 -3.24469e-18)
(2.26017 7.0218 0)
(1.36463 5.94851 1.58803e-18)
(1.45552 6.03279 2.4855e-18)
(0.905583 6.15384 5.16373e-19)
(0.847379 6.02431 -5.77043e-18)
(1.10041 5.95528 4.36371e-18)
(1.21664 6.10268 0)
(0.979209 6.21975 -3.71783e-18)
(0.458931 6.3452 7.13683e-18)
(0.705576 6.30499 -4.54955e-19)
(0.472728 6.44011 -1.01731e-17)
(2.36477 5.61847 1.15831e-17)
(2.03237 5.80962 0)
(5.01205 0.00408354 3.9358e-19)
(5.01795 -0.00170151 -2.69514e-19)
(5.01868 0.00127 -5.08261e-18)
(5.01789 0.00504107 5.31139e-18)
(5.01373 0.00851866 0)
(3.03119 5.83343 0)
(3.11699 5.28073 0)
(3.62445 4.99397 0)
(3.11848 5.17796 0)
(3.09682 5.57816 -2.53367e-19)
(3.05944 5.55685 0)
(2.40625 5.27475 6.56363e-20)
(1.93831 5.60772 0)
(2.16705 5.48162 -6.52888e-18)
(2.2399 5.54759 4.24936e-18)
(4.13964 0.693434 0)
(4.04322 0.867354 3.14192e-18)
(4.5023 0.630993 1.59702e-17)
(4.25628 0.529095 -6.21228e-18)
(4.22482 0.413115 -1.92094e-17)
(5.08512 1.05429 -1.20344e-17)
(4.60045 1.25874 -3.24935e-19)
(4.43258 1.35519 1.46569e-17)
(4.75951 0.950047 1.2181e-17)
(4.52412 0.776556 -2.12281e-17)
(4.40476 0.835585 2.7094e-18)
(4.5464 1.20032 -5.81746e-18)
(4.39619 0.922997 0)
(4.71734 0.73459 1.06287e-17)
(4.93487 0.804066 0)
(4.87961 0.888133 0)
(5.29028 0.516781 4.07725e-18)
(5.01221 0.749851 -2.33227e-19)
(5.04079 1.07315 -2.37111e-18)
(5.23988 0.914521 0)
(4.96889 0.140491 8.99554e-18)
(5.04073 0.225496 1.17564e-17)
(5.02453 0.142552 -9.50276e-18)
(5.03722 0.24918 -7.89117e-18)
(4.94876 0.26363 -1.22788e-17)
(4.712 0.602106 0)
(4.78597 0.361158 0)
(4.73058 0.226251 -8.05045e-18)
(4.58602 0.307556 3.0116e-18)
(4.99359 0.418918 1.11407e-17)
(5.0789 0.537636 -1.26019e-17)
(5.09195 0.682667 1.19626e-17)
(4.93804 0.569018 0)
(5.14401 0.465277 0)
(5.05586 0.402936 -5.1664e-18)
(5.0288 0.393109 -9.13402e-18)
(2.74622 4.99105 2.31448e-18)
(2.52031 5.09422 -2.92212e-18)
(2.81191 5.41758 -4.26247e-18)
(2.98428 5.90521 7.83797e-19)
(3.15152 5.71235 -9.91659e-18)
(3.37714 5.75509 4.60434e-18)
(3.4415 5.56314 -2.47616e-19)
(3.01466 5.86116 -3.85983e-18)
(2.95345 5.85065 6.5939e-18)
(3.04368 6.3143 9.59147e-19)
(3.43631 6.08166 -1.20894e-18)
(3.5662 6.06221 0)
(2.90391 4.09462 -6.98296e-19)
(1.65103 3.16892 8.47881e-18)
(2.04894 2.67055 1.29367e-17)
(1.49866 2.48103 1.5414e-17)
(2.65303 2.2164 1.44731e-17)
(2.80372 2.49578 -2.33965e-17)
(2.57757 2.59575 1.88836e-17)
(2.36589 2.39453 -7.5444e-18)
(2.36577 1.9815 1.70998e-17)
(3.8957 1.27289 -6.86401e-18)
(3.6477 1.44083 0)
(3.67878 1.33612 3.00587e-19)
(3.53195 2.55535 7.12892e-18)
(3.23161 2.37848 -2.45268e-17)
(2.9531 2.5141 6.79713e-19)
(3.16804 2.3315 0)
(3.38405 3.51833 5.82164e-18)
(3.89636 3.65574 6.19054e-18)
(3.57389 3.9475 -7.38403e-18)
(4.12968 3.84639 -2.23982e-18)
(4.39147 3.95901 -3.83307e-19)
(4.38494 4.03184 3.89498e-19)
(4.01783 3.12226 -1.09188e-17)
(4.41023 3.37579 2.04248e-18)
(4.71497 3.3998 0)
(4.70338 3.24907 -2.65428e-18)
(4.75367 1.54118 3.56555e-18)
(5.44223 1.43862 3.67532e-18)
(5.00911 1.21884 5.50341e-18)
(4.62503 1.6703 -7.04919e-18)
(4.90613 1.98141 0)
(5.22533 1.89659 0)
(4.30532 1.77518 7.96393e-20)
(4.06903 1.3701 0)
(4.08538 1.34652 7.55779e-18)
(4.26074 1.39283 8.25313e-20)
(4.4005 2.107 3.70937e-17)
(4.19739 2.39885 8.94093e-18)
(4.22347 2.25059 -1.00553e-17)
(3.91607 2.12733 1.06633e-17)
(3.82063 2.1225 6.5848e-18)
(3.64282 2.02013 -6.75974e-18)
(5.03658 0.0108333 9.65648e-18)
(5.0205 0.0124805 0)
(5.02021 0.0124799 5.91408e-18)
(5.03127 0.0137318 -1.40246e-17)
(5.02317 0.0189121 6.60573e-18)
(5.01619 0.0270482 -1.29919e-17)
(5.01285 0.0244627 0)
(5.01297 0.0226213 -2.77049e-18)
(5.01323 0.0171917 7.18819e-18)
(5.01153 0.019661 -3.66453e-18)
(5.01085 0.0197195 2.74848e-18)
(0.00213152 6.44588 0)
(0.00059019 6.46091 0)
(0.0526972 6.48744 0)
(0.00246501 6.44696 0)
(0.211194 6.43563 -8.45509e-19)
(0.266923 6.4984 1.63414e-19)
(0.308016 6.31993 8.23873e-20)
(0.343108 6.49158 -9.28029e-19)
(0.109388 6.43073 3.66496e-19)
(0.114551 6.43965 -3.10798e-19)
(0.188907 6.47003 -3.84163e-19)
(0.0824212 6.53345 9.50208e-19)
(0.0502504 6.5141 1.57599e-19)
(0.034149 6.47984 7.93142e-20)
(0.191594 6.39667 -1.51795e-18)
(0.253785 6.38001 0)
(0.342543 6.20903 1.05399e-18)
(0.393789 6.23657 4.33529e-19)
(0.752831 6.07385 -6.95601e-19)
(0.52171 6.13722 0)
(0.54745 6.06541 -5.50227e-18)
(0.780625 6.03974 3.69433e-18)
(0.651688 6.09709 -1.9881e-18)
(0.442424 6.20949 1.17901e-18)
(0.281525 6.19515 0)
(0.0249334 6.31655 -5.90499e-19)
(-0.0142953 6.43851 -9.74854e-19)
(-0.00842945 6.35762 0)
(0.0302185 6.46428 -5.16029e-20)
(0.0208863 6.42909 3.71978e-19)
(-0.0468439 6.38937 -2.58583e-20)
(-0.057015 6.39484 3.1007e-19)
(-0.063457 6.3756 -1.73475e-19)
(-0.0460148 6.34981 -6.00962e-21)
(-0.0180461 6.3776 0)
(-0.0667574 6.36791 0)
(-0.0726818 6.38462 -2.69929e-20)
(-0.0597521 6.35951 8.61336e-21)
(-0.0672789 6.37169 0)
(-0.0742341 6.4004 -3.08453e-20)
(-0.0757281 6.39816 5.3077e-20)
(5.06263 0.0358332 0)
(5.06932 0.02842 -9.7876e-19)
(5.06282 0.07295 -7.24389e-18)
(5.08591 0.0606651 0)
(5.07989 0.0509468 0)
(5.04297 0.0389223 -8.47232e-20)
(5.03326 0.0435324 1.17882e-17)
(5.02919 0.0472816 1.27745e-17)
(5.01225 0.0567581 0)
(5.00205 0.0584164 0)
(5.03937 0.081076 7.12278e-18)
(5.00807 0.0906928 0)
(4.99188 0.0830576 0)
(-0.043463 6.35999 0)
(-0.0459795 6.33436 1.14804e-20)
(-0.0349748 6.34014 4.82418e-20)
(-0.0557507 6.35655 0)
(-0.0451823 6.34579 1.84378e-20)
(-0.0517891 6.34239 -9.8993e-21)
(-0.0572863 6.3409 0)
(1.76018 5.6742 0)
(1.3696 5.94636 -3.31772e-19)
(1.23458 5.78506 0)
(1.84916 6.00047 -8.17049e-19)
(2.14032 6.56802 0)
(1.91144 6.4162 9.11224e-19)
(2.26943 5.65473 -2.05071e-19)
(2.40559 5.63106 -1.13149e-17)
(2.55129 5.61447 1.34132e-17)
(2.03237 5.78078 2.68689e-18)
(1.95683 5.628 0)
(2.14886 5.49744 0)
(2.31651 5.67555 0)
(2.19496 5.79865 -9.79336e-18)
(1.60248 5.71822 -4.39116e-18)
(1.85622 5.5709 -1.16684e-18)
(1.93412 5.59588 7.81249e-19)
(1.60707 5.90362 0)
(1.89838 5.88876 0)
(1.71714 5.96051 -2.93603e-18)
(1.7436 5.75394 0)
(3.0187 4.86792 0)
(2.81335 4.54336 -6.569e-18)
(2.81924 4.57738 -3.81348e-19)
(2.78861 4.83583 0)
(2.84167 4.758 1.02484e-17)
(3.70522 4.0679 -1.71116e-18)
(3.71961 4.69433 0)
(3.64004 4.59128 1.92333e-18)
(3.2528 4.64725 0)
(3.21616 4.39566 0)
(2.8225 5.5152 -5.31529e-18)
(2.75947 5.48978 -3.09434e-18)
(2.58335 5.23486 5.27522e-18)
(2.59877 5.31004 -1.79231e-18)
(2.80975 5.61346 0)
(2.68812 5.56525 2.2699e-18)
(2.97833 5.57512 -3.37824e-18)
(2.9047 5.56553 -1.87401e-19)
(2.38284 5.29833 0)
(2.48233 5.21926 -2.02838e-18)
(2.61926 5.27975 0)
(4.15968 1.06322 0)
(4.07063 0.911894 0)
(3.93223 1.03816 0)
(4.12141 1.08258 -1.15037e-17)
(3.96424 1.06259 6.92748e-18)
(4.58632 0.293091 -5.15874e-18)
(4.62209 0.495516 0)
(4.48172 0.510234 3.11027e-18)
(4.36261 0.327901 1.0777e-17)
(4.39871 0.324705 -6.65963e-18)
(3.00223 6.60053 1.1561e-18)
(3.04458 6.36064 0)
(2.99381 6.54679 3.73251e-18)
(1.72239 6.7633 -3.89311e-18)
(2.38439 5.50064 -5.55135e-18)
(2.67314 4.21169 8.53074e-18)
(2.79996 4.43332 0)
(2.53745 3.50017 -2.66796e-18)
(2.62679 3.51691 1.3718e-17)
(2.23677 3.03219 -4.17686e-18)
(2.7234 2.8559 4.27434e-18)
(3.23181 2.69214 9.24779e-18)
(3.38412 2.74891 0)
(3.13144 3.1932 0)
(2.86748 2.91927 0)
(4.66317 2.79063 8.06203e-19)
(4.27723 2.6081 -8.94871e-18)
(4.44242 2.79343 5.76358e-18)
(4.57748 2.41242 -6.75246e-18)
(4.91531 2.22579 0)
(5.08088 2.6699 -1.44352e-18)
(4.0389 1.88289 -1.50101e-17)
(4.02275 1.79447 -1.96079e-17)
(3.85261 1.8742 1.20436e-17)
(3.79598 1.67072 -1.27924e-17)
(4.01289 1.46258 -9.6318e-18)
(3.87104 1.52444 1.17027e-17)
(5.02707 0.0241494 -7.6415e-18)
(5.02581 0.0243527 1.46521e-17)
(5.03947 0.0149213 9.45821e-18)
(5.04437 0.0165442 -1.09557e-17)
(5.04224 0.03306 0)
(5.03286 0.0333121 -1.7879e-17)
(0.17703 6.28446 1.39657e-19)
(0.14316 6.30942 0)
(0.275667 6.24166 9.48591e-19)
(0.314687 6.27134 -7.87423e-19)
(0.228696 6.30255 -1.57115e-19)
(0.189659 6.28863 0)
(-0.04988 6.34862 0)
(-0.0556136 6.35717 -5.06167e-21)
(-0.0494779 6.34965 4.51745e-21)
(-0.0493739 6.3478 1.74558e-20)
(-0.0481222 6.35248 -3.37302e-20)
(-0.050174 6.35556 3.55846e-20)
(2.19274 5.33037 -6.46549e-18)
(2.08203 5.42705 6.8246e-18)
(1.88537 5.8694 -5.44712e-19)
(1.97941 5.55005 2.38041e-19)
(2.96299 5.88462 0)
(2.46747 6.31763 3.25002e-18)
(2.64913 6.31077 -3.12309e-18)
(2.10409 5.97946 5.55153e-19)
(2.42988 5.55679 0)
(2.54498 5.57794 0)
(1.59352 5.68871 6.26028e-18)
(1.49443 5.74853 1.12519e-17)
(1.65541 5.79944 -7.81736e-18)
(1.38415 5.78112 -1.55651e-18)
(1.36152 5.87101 2.33495e-18)
(1.07265 5.89581 -5.99274e-18)
(2.63515 5.57183 -7.6091e-18)
(2.78393 5.57518 0)
(2.72198 5.57469 -7.06967e-18)
(2.53877 5.55598 0)
(2.52223 5.52411 0)
(2.34006 5.06637 -5.70217e-18)
(2.63965 5.58674 -3.82103e-18)
(2.4445 5.64334 3.79728e-18)
(1.76888 3.58364 0)
(2.29749 3.74309 -4.87856e-18)
(2.61932 4.12473 -5.34704e-18)
(2.05481 4.70649 0)
(1.77915 5.06504 4.25717e-18)
(1.76335 4.89232 0)
(3.42238 3.33321 -1.29253e-17)
(3.69688 3.22581 1.83843e-17)
(3.7455 3.10243 -1.90868e-17)
(3.38754 3.21384 -1.73647e-18)
(3.58038 2.98751 -7.42189e-18)
(2.64787 5.39196 3.0018e-18)
(2.6318 5.2583 -5.85281e-18)
(2.3633 5.13631 8.92785e-18)
(2.59183 4.86441 -6.1134e-18)
(2.65548 5.065 -6.19125e-18)
(2.72621 5.10184 -5.9964e-19)
(2.69767 5.06945 5.23135e-18)
(2.60932 4.95169 5.19083e-19)
(2.59334 5.00994 2.93268e-18)
)
;

boundaryField
{
    wall-4
    {
        type            noSlip;
    }
    velocity-inlet-5
    {
        type            fixedValue;
        value           uniform (5 0 0);
    }
    velocity-inlet-6
    {
        type            fixedValue;
        value           uniform (0 5 0);
    }
    pressure-outlet-7
    {
        type            zeroGradient;
    }
    wall-8
    {
        type            noSlip;
    }
    frontAndBackPlanes
    {
        type            empty;
    }
}


// ************************************************************************* //
