/*--------------------------------*- C++ -*----------------------------------*\
| =========                 |                                                 |
| \\      /  F ield         | OpenFOAM: The Open Source CFD Toolbox           |
|  \\    /   O peration     | Version:  4.0                                   |
|   \\  /    A nd           | Web:      www.OpenFOAM.org                      |
|    \\/     M anipulation  |                                                 |
\*---------------------------------------------------------------------------*/
FoamFile
{
    version     2.0;
    format      ascii;
    class       volScalarField;
    location    "6";
    object      p;
}
// * * * * * * * * * * * * * * * * * * * * * * * * * * * * * * * * * * * * * //

dimensions      [0 2 -2 0 0 0 0];

internalField   nonuniform List<scalar> 
918
(
7.90246
15.968
0.120962
7.9209
-0.00366219
15.9203
-14.0897
14.3056
7.81176
-2.52248
-0.476824
8.49571
15.6794
15.3887
4.98976
0.0328524
13.1114
-10.2084
7.82497
-0.108884
16.2628
7.84038
7.85226
7.80289
10.2156
16.3186
15.4781
0.0320835
0.00256539
-0.111242
0.00867267
-0.0150263
-0.000472618
15.7239
15.8108
15.8477
7.54281
6.47969
-11.1893
-12.7977
-10.5361
-14.3313
13.8428
13.9963
-7.60377
14.3079
14.6787
7.71654
7.81086
7.81714
7.81356
7.81209
7.81836
2.86242
-2.79159
-3.58297
-1.97848
-1.77286
0.479869
-0.534656
-0.694094
-0.365195
-0.320929
6.86354
8.35803
8.25502
8.64294
8.87753
15.8674
15.8214
15.8643
15.7215
15.7495
15.6416
15.5951
15.3758
15.3958
15.3969
15.5024
2.68113
-2.52742
7.94688
9.42268
0.00266613
0.0604281
0.090034
12.6369
12.6428
12.8918
13.1798
7.70783
-9.79191
-13.4027
7.8318
7.82677
7.85457
7.86072
7.83617
7.83543
-0.0877417
-0.106781
-0.230226
-0.113341
-0.136406
15.8041
15.6209
7.79884
7.78207
9.1309
9.78443
9.45696
3.25598
10.5249
11.2902
14.3313
15.5845
15.8933
15.7748
15.4279
15.3401
15.5461
15.5821
0.163601
0.0354977
0.00230357
0.00103048
-0.00689376
7.50086
7.43441
7.83615
7.58236
7.60911
5.85147
4.94085
7.0177
7.45767
-8.95611
-10.901
-11.2307
-11.2478
-14.5168
8.73143
13.6501
13.6729
-7.20521
-5.30371
-8.7561
-4.93895
-6.49568
7.64105
7.69636
7.66274
7.76918
7.73452
7.75081
7.8397
7.82086
7.83119
3.18324
4.07888
2.27633
2.01966
-6.52124
-3.86377
-6.18302
-1.41349
-1.26875
0.53217
0.692946
0.373006
0.301352
-0.994609
-0.746743
-0.918627
-0.242476
-0.220512
6.71365
6.48239
7.02305
7.13218
7.94755
8.00733
8.15276
8.08709
15.5231
15.5476
15.5609
15.5183
-8.06352
-21.8104
11.2663
12.0851
0.0134561
0.0120045
0.00839008
0.0225273
0.00315983
0.00345437
0.131572
0.118028
0.101101
0.116847
12.2657
12.4173
7.59116
8.17838
7.00334
6.91495
7.79867
7.79829
7.81503
7.80059
-0.172099
-0.113394
-0.149969
14.6636
15.2704
15.1724
2.37344
0.179108
4.36285
4.93788
12.062
11.5499
12.0151
14.677
14.8342
15.5852
15.622
15.6206
15.6395
15.7139
15.7439
15.6818
7.23265
7.38354
7.30245
7.80411
7.82388
7.81457
7.89288
7.85072
7.86707
4.33035
3.12796
8.38378
8.08195
7.66946
8.01403
8.51877
8.84128
13.0662
13.2937
13.5037
-3.43417
-4.77775
1.67838
1.50874
5.57566
6.25419
5.89111
15.4747
15.4173
15.4839
15.4485
15.4055
15.434
3.24898
-3.78034
-0.274429
14.0511
12.9868
13.509
0.238957
0.152708
0.213171
8.04161
8.58661
4.49886
5.93737
5.60715
15.1238
15.2601
15.2779
15.035
15.1465
15.3494
15.3469
8.48524
8.3253
8.64356
8.57131
8.79595
-0.641099
-2.52718
-3.05066
0.824612
1.19718
1.04293
8.40386
8.48828
8.71035
7.78691
7.79418
0.081301
0.150504
7.83335
7.83342
0.0207478
0.00943318
13.2295
6.11175
0.342821
7.79795
7.68329
7.80444
-2.06628
2.49751
-0.419779
0.483486
0.226559
8.32911
7.07984
6.40604
0.0218341
0.0542011
-0.0740911
-5.23013
7.7741
7.76485
7.79962
7.79876
7.80564
0.0151023
0.0303754
0.0205652
-0.0334168
-0.0103413
-0.0634624
7.50076
7.8502
-4.4508
7.80488
7.81981
7.81548
7.80183
7.82417
7.82167
0.0524915
0.0126444
0.00139577
2.16053
4.80137
15.2248
16.4731
14.3154
12.9694
11.5778
14.2763
14.8761
14.009
15.3254
13.1661
13.7013
1.54014
-1.48008
1.81727
0.421694
7.78571
7.78855
7.67148
7.64579
7.77972
7.77529
7.7954
7.79169
7.80813
7.8086
-1.26261
-1.61422
-2.33066
-3.2115
2.69627
3.84449
1.87653
1.9369
1.03781
-0.334768
-0.310833
-0.407514
-0.561134
0.15861
0.218862
0.409649
0.396772
0.194795
0.148264
0.064393
0.160577
0.214797
8.16884
8.12002
8.34485
8.54595
7.22627
7.26491
6.72729
7.07128
6.81894
5.60092
6.36729
5.8394
0.0156781
0.0155696
0.00827909
0.0607959
0.0806459
-0.00390241
0.00633473
-0.0110123
-0.00484889
0.00964191
-0.0844454
-0.102213
-4.60134
-6.51487
7.24792
6.16683
2.71441
7.71111
7.74938
7.72776
7.77455
7.78961
7.7877
7.77122
7.75292
7.82011
7.81403
7.84629
7.8816
-2.98113
-6.0397
-2.83423
-4.30963
6.34808
11.5184
5.10074
3.94141
3.62328
8.66902
13.5856
14.787
16.7586
16.4818
8.27671
10.4877
8.91934
11.0833
9.82355
14.8575
15.2044
15.4129
15.1788
14.7516
4.55997
8.88651
-2.9615
-2.53178
1.1846
-0.861261
15.0533
12.7436
12.8207
13.3751
13.9445
12.8785
12.4919
12.4717
13.1976
13.2006
8.38919
3.04017
2.254
1.17041
12.2448
9.43961
10.7787
8.82352
7.79644
7.78871
7.79434
7.55956
7.63105
7.58444
7.73268
7.77758
7.76467
7.77746
7.74209
7.74797
-1.2817
-1.21655
-1.72718
-3.30677
-3.29708
-4.26418
-2.48374
0.527509
0.160952
2.54283
3.60822
-0.189245
-1.98407
-1.79431
-0.394989
1.1481
1.25003
0.56961
1.21414
1.35915
1.04637
1.62721
1.55145
-0.159539
-0.000746003
-0.321027
-0.26532
0.468196
0.765218
0.759434
0.0776973
0.0471422
-0.259409
-0.214545
0.181552
-0.132507
0.107725
-0.0536686
0.0330338
0.0538547
0.0657134
0.019687
0.102564
0.10061
7.91193
8.01418
7.98173
8.47792
8.6773
9.02212
8.46638
7.48514
7.38282
7.41552
7.08232
7.23512
7.20008
7.46568
7.83883
7.96635
7.73273
7.7957
7.65187
7.64926
7.42035
7.51006
7.07822
6.7287
6.52439
0.0211661
0.0117247
0.0131549
0.0201517
0.0211269
0.020673
0.136683
0.0937934
0.0989794
0.101048
0.116077
-0.021612
-0.0123711
-2.33987
-0.541873
-5.21406
-5.51034
-7.11338
7.01181
8.01172
5.95061
4.79822
5.04069
6.40381
6.88672
4.08283
5.23481
5.28454
8.17073
7.98562
7.75223
7.74391
7.73038
7.72964
7.74237
-1.13528
0.795833
0.093091
1.563
6.50868
7.08806
4.14959
4.46951
5.33447
5.13934
11.3762
11.8101
10.3796
11.029
11.095
6.7896
8.68892
9.89363
8.82168
9.92781
10.5571
9.5122
10.3558
8.87008
7.98363
7.94584
6.46192
7.26089
6.74982
6.18253
8.13674
7.69834
7.88998
7.77981
8.16683
9.13555
8.93772
9.25077
9.70324
8.01351
7.07012
7.42609
7.97123
6.9919
7.25618
7.66167
3.96844
4.75058
5.31847
4.51813
5.71287
5.03909
5.14262
4.65124
5.28812
3.58691
3.67171
1.55635
7.50231
13.7468
14.6337
15.1
14.0682
13.652
13.7923
14.5526
14.6927
12.0695
12.3861
12.4983
11.4426
12.1744
12.8449
12.7452
8.11685
6.07034
5.99157
4.82716
1.76833
2.68313
7.04534
5.44491
3.71758
3.6543
7.6564
4.88329
6.43494
7.77549
6.40459
4.89867
9.93875
11.3388
11.1221
10.5308
8.46083
8.80634
9.29376
10.1455
10.8711
11.6965
7.65178
7.71895
7.7126
7.6836
7.69843
7.73968
7.76564
7.77947
7.75405
7.77748
7.78459
-0.571674
-0.468128
-0.931742
-0.80757
-0.254975
-0.63206
-0.385225
-0.747378
-0.433119
-0.361929
-0.501736
-0.93356
-0.891792
-0.643213
1.19361
1.46138
1.26916
0.600979
2.19539
3.33216
3.89738
3.17615
1.80681
2.13218
2.46578
0.318836
0.428612
0.321691
0.544464
0.438444
-0.234789
-0.213852
-0.121347
-0.0324215
-0.134209
-0.109054
-0.125475
-0.103549
-0.142532
-0.181202
-0.151925
7.52107
7.44973
7.56455
7.4582
7.40467
7.64808
7.67263
7.73692
7.80328
7.87024
7.74117
7.85889
7.90353
0.025393
-0.0103809
0.00411319
-0.0609728
-0.0274858
-0.0409462
-0.064582
2.6301
0.572564
1.70059
-0.0401573
-3.23886
-1.85327
6.20645
7.62997
8.07873
7.5349
6.3758
6.59753
7.76951
8.16026
4.1235
5.37062
4.60338
7.54436
7.3984
8.13489
5.66195
3.38461
5.70091
6.12548
4.21222
5.08565
4.65298
2.29904
2.91245
3.75443
5.22476
5.73797
5.24294
4.84123
4.66229
5.92846
5.55383
6.89544
7.56421
3.45809
3.06213
1.93635
11.218
11.7377
12.0798
11.3733
11.8645
9.9376
9.85704
10.2903
10.5403
10.1717
3.096
3.49686
2.41936
6.14001
7.02384
7.95025
6.8422
11.8867
10.7603
13.26
13.0883
11.8853
10.88
10.8651
11.9798
4.97508
7.68237
6.84337
7.35148
5.54708
3.7719
10.5434
10.4857
11.3058
11.8946
11.0689
11.8059
7.66624
7.68486
7.63775
7.59955
7.60007
7.65209
0.375106
0.0332021
0.565067
0.244782
-0.105649
-0.098326
-0.0274145
-0.0585862
-0.0485554
-0.0296421
0.0123102
0.040006
3.1947
3.37712
0.769981
2.12053
-0.970607
-2.09747
-2.89826
0.0433248
1.64788
1.16053
4.56548
5.88934
4.97098
5.57015
4.2801
4.80816
7.64009
7.29925
7.96719
6.31577
6.44959
6.77662
4.42425
5.72441
11.5907
10.9757
9.17002
8.43231
8.45585
10.1827
8.71367
7.68356
8.56266
9.82831
9.75117
5.05183
5.04813
5.9525
6.52311
4.9309
5.41275
5.08736
5.83446
5.28436
)
;

boundaryField
{
    wall-4
    {
        type            zeroGradient;
    }
    velocity-inlet-5
    {
        type            zeroGradient;
    }
    velocity-inlet-6
    {
        type            zeroGradient;
    }
    pressure-outlet-7
    {
        type            fixedValue;
        value           uniform 0;
    }
    wall-8
    {
        type            zeroGradient;
    }
    frontAndBackPlanes
    {
        type            empty;
    }
}


// ************************************************************************* //
