/*--------------------------------*- C++ -*----------------------------------*\
| =========                 |                                                 |
| \\      /  F ield         | OpenFOAM: The Open Source CFD Toolbox           |
|  \\    /   O peration     | Version:  4.0                                   |
|   \\  /    A nd           | Web:      www.OpenFOAM.org                      |
|    \\/     M anipulation  |                                                 |
\*---------------------------------------------------------------------------*/
FoamFile
{
    version     2.0;
    format      ascii;
    class       volVectorField;
    location    "6";
    object      U;
}
// * * * * * * * * * * * * * * * * * * * * * * * * * * * * * * * * * * * * * //

dimensions      [0 1 -1 0 0 0 0];

internalField   nonuniform List<vector> 
918
(
(4.98414 -0.000972138 0)
(0.00494606 4.96589 0)
(-0.0532569 5.8965 0)
(4.97868 0.0018221 0)
(-0.0113233 6.07766 1.23433e-20)
(-0.00677988 4.94767 -3.22116e-17)
(4.1907 5.92656 1.0097e-17)
(2.61134 1.41331 -2.94085e-19)
(4.99992 -2.00894e-05 0)
(0.390256 4.94436 0)
(0.0257828 4.69418 0)
(4.55138 -0.000241086 0)
(0.0104443 4.92904 0)
(-0.0348639 4.79597 0)
(-0.0893823 6.17341 -5.19287e-18)
(-0.0139601 5.99609 -4.32248e-20)
(3.23058 0.525921 2.02597e-17)
(0.997072 6.26846 7.48119e-18)
(4.96058 0.0072625 0)
(-0.0524574 5.17152 0)
(1.26852 1.32564 -1.52895e-17)
(5.00203 -0.00430158 0)
(5.00012 -0.00885028 0)
(4.97501 -0.00628705 0)
(4.08335 0.0725574 0)
(0.0542065 4.28589 0)
(-0.0236878 4.91304 1.44949e-17)
(-0.0842082 5.89775 0)
(-0.0904616 6.17585 0)
(-0.0722633 5.8835 0)
(-0.0165931 6.4207 0)
(-0.00744537 6.11048 -1.06543e-20)
(-0.00940004 5.9801 0)
(-0.0218158 4.98711 -1.24175e-21)
(-0.0172444 5.00548 2.46239e-17)
(0.00216117 5.00077 0)
(4.88712 -0.0113018 0)
(2.12569 3.04516 4.09504e-18)
(4.51814 5.82687 -1.37238e-17)
(5.1363 5.1728 1.61436e-17)
(3.62871 6.2417 -2.04832e-18)
(3.37762 6.39587 1.19998e-17)
(2.80089 1.39697 3.08108e-19)
(2.83195 1.04601 0)
(6.08773 3.09167 0)
(2.48236 1.63858 1.30337e-18)
(2.46085 1.26971 -1.46263e-18)
(4.92188 -0.00877611 0)
(5.00031 0.000358745 0)
(4.99994 0.000558605 0)
(5.00389 -0.00808257 0)
(5.00104 -0.000657488 0)
(5.00019 0.00020832 0)
(0.261637 5.52548 -5.17376e-18)
(0.12537 5.45845 0)
(0.54949 5.17749 0)
(0.0881344 5.29454 0)
(0.27792 4.77132 0)
(0.0263396 6.10304 0)
(-0.0263786 5.13485 0)
(0.066508 4.65758 0)
(-0.0486741 5.18013 0)
(-0.00447659 4.76601 0)
(4.94612 -0.000882473 0)
(4.73229 0.0623748 0)
(4.64652 -0.000287764 0)
(4.65608 0.0740693 0)
(4.44696 0.0304518 0)
(0.0148047 4.99994 1.25466e-17)
(0.0122049 5.00538 0)
(0.00707536 5.00413 0)
(0.0137408 4.99643 1.50109e-22)
(0.00824849 4.95769 -1.8375e-17)
(0.0151654 4.98263 0)
(0.00906893 4.90287 0)
(0.0445981 4.90053 3.8954e-23)
(-0.0148608 4.83215 0)
(0.0737716 4.86024 0)
(-0.0513079 4.71315 0)
(0.881936 7.17408 0)
(-0.236288 7.46576 0)
(0.395068 6.3235 4.86866e-18)
(0.0570063 5.57562 0)
(-0.0421279 6.34629 0)
(-0.016639 6.19424 4.26152e-20)
(-0.0169141 6.02716 -8.71338e-20)
(3.29874 0.730216 -6.36e-18)
(3.35671 0.569596 -6.08533e-18)
(3.19291 0.872755 -2.09512e-17)
(3.14307 0.819276 -1.2648e-17)
(0.926352 3.9443 0)
(1.38291 6.75371 -8.493e-18)
(1.70754 6.7043 1.35805e-17)
(4.98566 0.00999737 0)
(4.93821 0.00665681 0)
(5.00028 0.000815359 0)
(5.00246 0.0095403 0)
(5.00312 0.0101008 -3.86106e-17)
(4.99152 0.00934971 2.72403e-17)
(-0.0899557 5.48611 0)
(-0.0463219 5.06875 0)
(-0.1016 5.89042 0)
(-0.0950969 5.58672 0)
(-0.065033 5.27816 0)
(1.62624 1.53074 4.57971e-18)
(1.7197 1.44824 0)
(4.99494 -0.00725244 0)
(4.95448 -0.00660368 0)
(4.5046 0.0722315 0)
(4.30613 0.0651985 0)
(4.28916 0.0564643 0)
(5.41119 -0.0783482 0)
(4.06642 0.0945306 0)
(3.74657 0.135928 2.62536e-17)
(0.00851358 4.98706 1.45073e-17)
(0.126285 4.80487 0)
(0.202988 4.74594 0)
(-0.066236 4.56782 0)
(-0.00529666 4.98415 1.45865e-17)
(-0.0275963 4.90897 0)
(-0.0126852 4.98743 -4.34215e-17)
(-0.0187282 4.92538 1.45298e-17)
(-0.0686793 6.37875 0)
(-0.0501318 6.36101 0)
(-0.0127968 6.16655 -5.55499e-23)
(-0.00790963 6.11814 0)
(-0.01258 5.98966 0)
(4.95659 0.00386011 0)
(4.88504 -0.01356 0)
(4.84154 0.00349647 0)
(4.96078 -0.000105645 0)
(4.89284 -0.0105137 0)
(2.29846 4.15806 -5.10959e-18)
(2.23504 3.50905 0)
(2.0896 3.94873 6.29743e-19)
(2.02992 2.75245 0)
(4.80307 5.24273 -3.97872e-18)
(5.38018 4.68455 7.67081e-18)
(2.0848 6.80364 0)
(2.84583 6.62344 0)
(2.56015 6.69741 0)
(1.73815 2.70275 -3.9581e-18)
(2.85164 1.35195 0)
(2.95074 1.05587 3.90432e-18)
(5.50212 4.38723 0)
(5.65973 3.74573 0)
(5.96218 3.53299 -7.65838e-18)
(6.21693 2.84917 0)
(6.44546 2.13134 1.30974e-18)
(4.96449 -0.00300657 0)
(4.96649 -0.00643167 0)
(4.90615 -0.0109884 0)
(4.98599 -0.00720166 0)
(4.97721 -0.00685877 0)
(4.93649 -0.006494 0)
(5.0002 0.00293375 0)
(5.00069 0.00181202 0)
(4.99991 0.00109194 0)
(0.174303 5.72924 2.85431e-18)
(0.377142 5.29536 0)
(0.105357 5.97333 4.58231e-18)
(0.174279 5.73694 -3.76541e-18)
(0.729235 6.17222 -6.19312e-18)
(0.191103 5.66596 0)
(0.52545 5.68824 0)
(0.0575666 5.18666 0)
(0.204118 4.67675 0)
(0.0273781 6.27557 -6.96081e-21)
(0.0518268 6.07306 0)
(0.0133217 6.29573 -2.93586e-19)
(0.0186498 6.14287 5.2775e-19)
(0.0252379 5.12551 0)
(-3.35862e-05 5.11837 0)
(0.131723 4.63796 0)
(-0.0637361 5.24304 0)
(-0.0244911 4.85981 0)
(5.03301 0.038496 0)
(4.99067 0.0116029 0)
(4.99369 0.0264442 0)
(4.91326 -0.00362159 0)
(4.76184 -0.00552633 0)
(4.84404 0.0410427 0)
(4.79557 0.0512836 0)
(4.70824 -0.00576391 0)
(0.00721102 5.06151 -1.21446e-19)
(0.0100817 5.06267 0)
(0.0168694 4.96952 0)
(0.00458489 4.87695 0)
(2.2699 8.38508 0)
(3.01302 7.30959 2.16241e-18)
(0.219515 5.71366 0)
(0.0425242 5.2193 0)
(-0.0530158 6.33029 0)
(-0.0500077 6.33645 0)
(-0.0497488 6.32803 0)
(-0.0219822 6.40128 1.82536e-20)
(-0.0387584 6.37001 0)
(-0.031963 6.3737 0)
(-0.00773956 6.09131 1.49599e-20)
(-0.0113752 6.27879 1.07939e-19)
(-0.0151356 6.24023 8.87801e-20)
(-0.0117819 6.05424 0)
(3.49065 0.590173 1.03887e-17)
(3.47168 0.222175 -1.01196e-17)
(0.616565 4.62897 0)
(1.13917 3.60146 -2.51022e-18)
(0.494231 4.81701 -7.5381e-18)
(0.749521 4.27821 7.55761e-18)
(4.891 0.00569152 0)
(4.96251 0.0139595 0)
(4.97164 0.0123252 0)
(4.91639 0.00618506 0)
(-0.0762923 5.32284 0)
(-0.0830031 5.40124 0)
(-0.0367703 4.96353 0)
(2.34905 1.57724 1.30296e-17)
(1.95486 1.62483 -1.50666e-17)
(2.04971 1.49936 0)
(5.88936 0.458745 2.77715e-19)
(5.9589 0.110746 0)
(5.49084 0.186606 0)
(5.16374 0.0279926 0)
(3.55321 0.389197 0)
(3.73771 0.31199 -4.17699e-17)
(3.54672 0.153609 1.71955e-17)
(0.0470367 5.03973 1.36427e-17)
(-0.0177729 4.94264 1.83569e-19)
(0.00822164 5.051 -2.89832e-19)
(0.0142622 5.0475 1.03172e-17)
(-0.015092 4.99735 4.63574e-19)
(-0.0137324 4.94884 -1.85153e-21)
(-0.0173157 5.01354 -8.16966e-18)
(0.011506 5.02881 5.53891e-18)
(0.00597984 5.03418 -9.04511e-18)
(4.97625 0.0216836 0)
(4.965 0.0134351 0)
(4.89355 -0.00862148 0)
(4.94747 0.0168441 0)
(4.92701 0.0205173 0)
(4.8653 0.00507302 0)
(4.88108 0.0328392 0)
(4.90115 0.024565 0)
(4.80596 -0.00375685 0)
(2.49452 4.45139 -4.40533e-18)
(2.27078 4.06005 0)
(1.88412 2.6104 1.17933e-18)
(1.7748 3.80518 9.12605e-18)
(1.92063 3.85232 -5.41643e-18)
(1.94438 2.63423 1.04182e-17)
(1.34844 3.94952 1.94233e-17)
(1.62024 2.8919 3.84674e-18)
(3.08302 1.01685 1.35466e-17)
(3.01405 1.15142 3.69358e-18)
(3.059 0.804868 7.50888e-18)
(6.27851 2.18743 3.83019e-18)
(6.45816 1.56679 3.82842e-18)
(0.0845711 6.09187 1.71392e-18)
(0.125344 5.87211 0)
(5.23388 0.102285 0)
(5.10408 0.0541664 0)
(5.05344 0.00843105 0)
(0.00706599 5.07821 0)
(0.0301665 4.93265 2.06495e-17)
(0.0213851 4.95414 0)
(-0.00336697 4.85365 -2.03766e-17)
(0.00363854 5.09174 4.89575e-18)
(0.0104596 5.07761 0)
(2.51402 4.73144 2.88182e-19)
(3.14639 5.88208 -9.60517e-19)
(2.38088 4.894 -2.01214e-18)
(0.0897638 5.14675 -1.33826e-17)
(0.131958 5.34862 0)
(0.0441072 5.07571 0)
(0.00498402 6.28758 -3.65222e-20)
(-0.00781616 6.29501 -2.80142e-19)
(0.00469531 6.11897 -3.6579e-20)
(0.793213 4.35264 7.94079e-18)
(1.28771 3.42901 -5.60077e-18)
(0.244713 5.46411 5.1381e-18)
(0.34082 5.16012 -6.38073e-18)
(0.549178 4.82418 7.8339e-19)
(0.0307362 5.12857 -3.42166e-17)
(0.0350652 5.12206 3.69981e-17)
(0.00706544 4.98411 1.46657e-17)
(0.0206936 4.99978 -1.47142e-17)
(-0.0193621 4.9163 -1.49353e-17)
(0.0180738 5.09437 -3.79168e-17)
(0.00962643 5.10047 3.8245e-17)
(1.50064 3.80276 0)
(1.63903 3.7973 -1.94873e-17)
(1.79362 2.67942 8.67832e-18)
(1.20532 3.97652 1.07137e-17)
(1.50547 2.99494 -1.6733e-17)
(6.29504 0.88047 1.01934e-19)
(6.43692 1.3057 0)
(6.42581 0.642471 1.29911e-18)
(0.0406503 6.23179 -1.10135e-20)
(0.0581003 6.17892 0)
(0.0795184 5.98928 0)
(0.917025 4.23186 -2.94217e-18)
(1.0482 4.14896 -6.71322e-18)
(1.4067 3.18891 1.24194e-17)
(5.00784 -0.0106408 0)
(5.00891 -0.00640162 6.92761e-18)
(-0.0697857 6.3569 0)
(-0.105208 6.39941 0)
(5.00218 0.00404857 8.67025e-21)
(5.00348 0.00916668 1.53202e-17)
(-0.0260751 6.41387 -2.13112e-20)
(-0.0222362 6.42184 0)
(0.264185 5.42718 1.23514e-17)
(1.12713 6.4134 0)
(5.18965 3.42134 -3.95272e-19)
(5.00964 0.0149931 -8.53962e-21)
(5.02622 -0.00752528 0)
(5.00154 0.00142005 2.66159e-21)
(0.311389 6.59748 0)
(0.28032 6.53714 0)
(-0.0412982 6.39917 0)
(0.0246893 6.6127 3.89333e-19)
(-0.021853 6.54547 1.47403e-19)
(4.89852 0.094967 8.92806e-20)
(5.12454 0.0408272 0)
(5.22402 0.103791 0)
(-0.0510928 6.34538 0)
(-0.0413353 6.46318 0)
(-0.0797118 6.37722 0)
(1.00582 7.02472 -4.27337e-18)
(5.01432 -0.0082461 0)
(5.01257 -0.0161307 0)
(5.00284 0.00243887 9.05314e-18)
(5.00615 -0.00387492 -1.04247e-17)
(5.00125 -0.000564507 0)
(-0.057507 6.33822 0)
(-0.0584434 6.34179 0)
(-0.0557077 6.34031 0)
(-0.0796559 6.37717 0)
(-0.0809038 6.35407 0)
(-0.0882383 6.37393 0)
(5.05734 0.00464197 0)
(4.99604 0.0283816 1.37324e-20)
(3.46674 6.05468 7.25947e-18)
(5.00205 0.00199741 -8.56731e-18)
(5.00308 0.00514284 1.04639e-17)
(5.00149 0.00314606 0)
(5.00971 0.0124336 9.23763e-18)
(5.00533 0.00880526 -1.16184e-17)
(5.00659 0.0129571 0)
(-0.03755 6.46054 0)
(-0.02816 6.4388 9.9067e-21)
(-0.0304881 6.44798 -4.63853e-21)
(5.76194 1.31508 6.98198e-18)
(5.4922 0.395202 0)
(0.403809 4.93722 -2.21494e-17)
(0.268974 4.6527 -1.47206e-18)
(0.673657 5.38851 2.90854e-17)
(0.53019 5.54195 -8.45776e-18)
(0.580295 5.65659 0)
(0.12911 5.20738 5.57641e-18)
(0.365384 5.2472 2.19015e-17)
(0.355709 5.38574 -1.04835e-17)
(0.147443 5.0714 0)
(3.33626 1.72826 0)
(2.99142 1.94388 0)
(5.25102 3.50909 2.63245e-19)
(4.97594 4.20178 8.85098e-19)
(5.51265 2.88751 0)
(5.50544 2.78719 0)
(5.0127 0.0157632 -1.7352e-17)
(5.01186 0.0178824 2.00675e-17)
(5.03542 -0.00485229 0)
(5.03159 -0.0123944 0)
(5.00646 0.0074781 0)
(5.00978 0.00810273 0)
(5.00417 0.00385441 0)
(5.00817 0.0104158 0)
(5.0058 0.0075912 0)
(5.00425 0.00782075 0)
(0.289876 6.56641 0)
(0.163751 6.53321 0)
(0.409006 6.75241 0)
(0.35895 6.79602 0)
(0.341986 6.51036 0)
(0.360839 6.59395 -2.72671e-18)
(0.241997 6.64736 0)
(0.168456 6.65187 1.37697e-18)
(0.0986853 6.67432 -1.14167e-18)
(-0.0466322 6.3949 0)
(-0.0656133 6.39601 0)
(-0.016179 6.40164 0)
(-0.00744429 6.38127 0)
(-0.0208001 6.39887 -7.17646e-20)
(-0.0235175 6.56189 1.44128e-19)
(0.00404864 6.62035 3.00975e-19)
(-0.000105714 6.61125 0)
(-0.0298276 6.54881 -3.09199e-19)
(-0.0316646 6.5361 -1.41915e-19)
(-0.0194203 6.38878 7.28925e-20)
(-0.0468569 6.47882 -2.35145e-19)
(-0.0209347 6.53009 -3.90774e-19)
(4.9342 0.113727 1.80171e-17)
(4.93374 0.0567831 -2.23799e-17)
(4.89708 0.144198 -1.86671e-17)
(4.83353 0.107322 2.42557e-17)
(5.12695 0.0487851 0)
(5.09534 0.0070147 0)
(5.22038 0.13209 0)
(5.15257 0.065915 0)
(5.14302 0.0395747 0)
(5.42673 0.339156 0)
(5.27731 0.191402 0)
(5.27381 0.157285 0)
(-0.0419038 6.3994 -2.88397e-21)
(-0.0508656 6.36058 0)
(-0.0410248 6.36951 0)
(-0.0448745 6.47916 2.99526e-20)
(-0.0396673 6.49125 -1.74795e-21)
(-0.0654485 6.34573 1.24961e-21)
(-0.0631415 6.3493 -1.30205e-21)
(-0.0757763 6.36197 0)
(-0.0699309 6.35751 0)
(-0.0702248 6.35354 0)
(-0.0804578 6.37985 0)
(-0.0811071 6.38867 0)
(1.56639 7.07715 6.48184e-18)
(1.53934 7.10461 2.94063e-18)
(1.23866 6.04208 -1.99751e-18)
(0.735979 6.28673 5.05057e-18)
(1.17571 5.93529 9.50421e-19)
(5.02679 -0.00563574 0)
(5.01943 -0.0076937 0)
(5.01985 -0.0149151 0)
(5.00727 0.00394818 0)
(5.00502 0.00070976 0)
(5.00763 -0.0016378 0)
(5.01079 -0.000107154 0)
(5.01521 -0.000125542 0)
(5.00555 0.034143 1.72519e-17)
(5.00526 0.0203509 -2.13912e-17)
(4.9992 0.0363875 -1.82335e-17)
(4.98707 0.0364967 2.01423e-17)
(3.44111 6.1568 0)
(2.88921 6.58082 6.35428e-18)
(4.07272 5.68447 2.7192e-18)
(4.07509 5.69071 -3.57328e-18)
(3.13799 5.50862 1.61372e-17)
(4.12931 0.648909 1.0759e-17)
(5.52011 0.460006 0)
(5.72004 0.873567 -5.30352e-18)
(5.57003 0.769794 -2.13494e-19)
(4.83907 0.629806 0)
(0.825244 5.13324 1.53447e-17)
(0.725421 4.68172 -2.70197e-17)
(0.462765 3.39088 1.69451e-17)
(0.924129 1.42793 -7.70031e-18)
(0.952979 6.3087 5.98814e-18)
(0.632601 5.9562 0)
(0.727644 6.08878 -7.79403e-18)
(1.0439 5.32631 -4.15643e-17)
(1.22612 5.71653 0)
(0.0515429 5.11701 9.63415e-19)
(0.0761259 5.12823 -9.83227e-18)
(0.0590633 5.11157 1.5637e-17)
(0.178615 5.15233 0)
(0.182206 5.21384 0)
(3.40641 5.63593 0)
(2.81582 4.03288 -8.58736e-18)
(4.59386 5.03901 -1.15276e-18)
(4.64662 5.09111 0)
(4.1164 4.4601 -1.03345e-18)
(5.02841 4.34985 4.58437e-19)
(1.97953 2.11226 -1.98239e-17)
(3.50524 1.63228 -5.08037e-19)
(3.48927 1.54143 7.97434e-18)
(3.00543 2.17277 6.20711e-19)
(2.70532 2.08334 -2.51727e-17)
(3.37181 1.80163 0)
(3.40288 2.12064 1.16297e-17)
(3.38805 2.09878 0)
(3.18827 1.99749 0)
(3.20072 1.76937 0)
(3.75902 3.01172 6.73008e-18)
(5.79102 1.39518 -5.75764e-18)
(5.7273 2.09474 0)
(5.65412 1.99379 0)
(3.82356 1.17336 1.20173e-17)
(3.96256 2.63701 -6.97659e-18)
(3.54955 2.46234 1.19626e-17)
(4.42765 2.05939 -1.32021e-17)
(5.01011 0.0228016 1.1153e-17)
(5.01163 0.0187563 -1.00392e-17)
(5.0102 0.0180335 0)
(5.05903 0.00599841 0)
(5.04371 -0.00191578 -1.08145e-17)
(5.04153 -0.0103505 1.06056e-17)
(5.01782 0.0313734 0)
(5.01216 0.034953 0)
(5.01079 0.0107643 0)
(5.0111 0.0138913 0)
(5.0146 0.0135294 0)
(5.01393 0.00947641 0)
(0.146494 6.52415 0)
(0.0869647 6.46327 0)
(0.575969 6.64875 1.28037e-18)
(0.954795 6.97149 2.10344e-18)
(0.500366 6.9485 4.48333e-18)
(0.588373 6.97664 -7.39358e-18)
(0.632124 6.73076 0)
(0.563668 6.184 -2.10565e-19)
(0.522787 6.20236 0)
(1.06237 5.93178 -1.36054e-18)
(0.838012 6.0393 5.26284e-18)
(0.73745 6.21739 1.81514e-19)
(0.952439 6.60319 9.78303e-19)
(0.827897 6.62203 -8.05509e-19)
(1.2467 6.25356 -2.10276e-19)
(0.930569 6.06885 0)
(1.01572 6.04673 4.35949e-19)
(0.0781019 6.481 -2.09098e-19)
(0.0936028 6.65431 0)
(0.198259 6.45192 1.36876e-18)
(0.143977 6.49255 0)
(0.147709 6.67708 -1.50134e-18)
(0.106062 6.6942 0)
(-0.0076823 6.37546 1.91894e-19)
(0.0224336 6.33043 0)
(0.0279929 6.42568 0)
(-0.0113811 6.42084 -2.20677e-19)
(0.0185725 6.63346 -2.58079e-20)
(0.0563943 6.68102 1.16468e-18)
(0.0456474 6.67663 6.97079e-21)
(-0.0505826 6.37984 3.22814e-20)
(-0.0459171 6.36509 1.91944e-20)
(-0.0693896 6.39328 0)
(-0.0757032 6.39243 0)
(0.0605172 6.24321 2.62381e-19)
(0.104094 6.40775 -6.14659e-20)
(0.0604205 6.30465 -6.29448e-20)
(0.149868 6.26764 0)
(-0.0665547 6.40239 -7.21166e-20)
(-0.0652605 6.46383 4.30336e-20)
(-0.062233 6.45169 -1.79568e-20)
(-0.0532637 6.3761 -4.28752e-20)
(-0.0575095 6.48768 -2.34666e-20)
(-0.0478786 6.49665 1.92758e-19)
(4.98623 0.0456505 -1.08142e-17)
(4.96561 0.0735167 1.18953e-17)
(4.96389 0.0386775 0)
(4.89478 0.243214 1.7658e-17)
(4.84245 0.184615 -2.02552e-17)
(4.74129 0.185 2.27144e-17)
(4.87437 0.428199 -2.38183e-18)
(5.0761 0.00974531 0)
(5.09682 0.0220947 1.03278e-17)
(5.06956 -0.00331593 -1.08158e-17)
(5.14119 0.154718 -6.38582e-19)
(5.12593 0.0959464 5.56172e-18)
(5.11893 0.220669 0)
(5.09668 0.180082 -1.98871e-18)
(4.9957 0.145902 0)
(4.98697 0.124095 0)
(5.01965 0.0415924 0)
(5.00621 0.0400342 0)
(5.03756 0.107588 4.18778e-18)
(5.03042 0.0895288 -9.28846e-18)
(5.08353 0.125345 -4.35446e-18)
(5.06553 0.123448 -4.74106e-18)
(5.16307 0.242978 9.51247e-18)
(5.24615 0.205464 0)
(5.27002 0.403863 0)
(-0.0719128 6.39986 -2.68622e-20)
(-0.0611443 6.36786 -2.70517e-21)
(-0.0631336 6.36928 0)
(-0.0522203 6.42503 2.68772e-20)
(-0.0405626 6.40456 5.15943e-21)
(-0.0486371 6.42026 -4.9941e-21)
(-0.0340356 6.52943 1.27611e-19)
(-0.057954 6.48845 -7.39011e-21)
(-0.0567506 6.48326 3.30497e-20)
(-0.0383075 6.5047 -5.96592e-20)
(-0.0361358 6.51574 7.1098e-20)
(-0.075237 6.35423 -5.02216e-21)
(-0.0738556 6.35338 -1.40387e-20)
(1.67566 6.54088 -3.25494e-18)
(1.32098 6.27205 -1.39279e-19)
(2.8723 6.71554 -6.09005e-18)
(2.21502 7.0063 -3.26134e-18)
(2.25086 6.98516 0)
(1.34369 5.93804 1.59881e-18)
(1.43411 6.01068 2.50085e-18)
(0.889681 6.16307 5.08497e-19)
(0.838046 6.05665 -5.77359e-18)
(1.08281 5.97744 4.35645e-18)
(1.18922 6.09781 0)
(0.959456 6.23171 -3.72824e-18)
(0.500495 6.41303 7.29301e-18)
(0.717131 6.31792 -4.56729e-19)
(0.505676 6.51256 -1.02015e-17)
(2.36484 5.63849 1.1563e-17)
(2.02077 5.80575 0)
(5.01216 0.00353944 3.97285e-19)
(5.01796 -0.000195784 -2.69882e-19)
(5.01825 0.00213325 -5.01111e-18)
(5.0183 0.00461971 5.31101e-18)
(5.01353 0.00763333 0)
(3.06478 5.80186 0)
(3.16549 5.26505 0)
(3.67496 5.00147 0)
(3.17411 5.15739 0)
(3.10567 5.54758 -2.47858e-19)
(3.07005 5.53564 0)
(2.44577 5.2849 6.57662e-20)
(1.93197 5.64333 0)
(2.1681 5.50671 -6.73541e-18)
(2.25261 5.57775 4.35825e-18)
(4.12032 0.702887 0)
(3.98103 0.831248 3.14021e-18)
(4.48071 0.649285 1.61527e-17)
(4.21332 0.532163 -6.29041e-18)
(4.18766 0.431091 -1.92885e-17)
(5.12477 1.07544 -1.21119e-17)
(4.66523 1.26698 -3.48995e-19)
(4.39055 1.36291 1.52184e-17)
(4.77314 0.979601 1.23594e-17)
(4.50907 0.792061 -2.14813e-17)
(4.39023 0.838364 2.74473e-18)
(4.5117 1.19244 -5.88247e-18)
(4.38312 0.937978 0)
(4.73749 0.763989 1.08005e-17)
(4.96776 0.8366 0)
(4.90879 0.916298 0)
(5.30401 0.513114 4.07871e-18)
(5.05642 0.762367 -2.36105e-19)
(5.08183 1.09292 -2.38589e-18)
(5.26966 0.925223 0)
(4.95462 0.148162 9.22366e-18)
(5.02519 0.225292 1.19037e-17)
(4.99943 0.152773 -9.81164e-18)
(5.03768 0.24831 -7.8726e-18)
(4.9356 0.273529 -1.22913e-17)
(4.717 0.616883 0)
(4.79262 0.383942 0)
(4.73003 0.250913 -8.11858e-18)
(4.56445 0.342108 3.0362e-18)
(4.99902 0.430922 1.13065e-17)
(5.11092 0.536352 -1.2683e-17)
(5.13028 0.689401 1.20657e-17)
(4.94884 0.592053 0)
(5.16992 0.456132 0)
(5.07809 0.399702 -5.19634e-18)
(5.02999 0.389545 -9.15709e-18)
(2.82924 4.9805 2.34002e-18)
(2.58264 5.0845 -2.97162e-18)
(2.83689 5.36789 -4.27492e-18)
(2.98163 5.83017 7.9942e-19)
(3.15468 5.67146 -1.00635e-17)
(3.37383 5.70608 4.67357e-18)
(3.44564 5.5327 -2.51703e-19)
(3.01527 5.79442 -3.93547e-18)
(2.96063 5.7887 6.72875e-18)
(3.03348 6.23935 1.00097e-18)
(3.42313 6.01657 -1.262e-18)
(3.55427 6.00063 0)
(2.97055 4.10056 -6.83554e-19)
(1.51522 3.09004 8.39829e-18)
(1.92275 2.64234 1.28492e-17)
(1.42225 2.40245 1.5146e-17)
(2.66473 2.25329 1.41922e-17)
(2.71021 2.52423 -2.34762e-17)
(2.4711 2.59392 1.89347e-17)
(2.25728 2.39402 -7.52931e-18)
(2.30429 1.96047 1.68621e-17)
(3.88526 1.28547 -6.82462e-18)
(3.73188 1.49268 0)
(3.66566 1.36108 2.96141e-19)
(3.47747 2.52838 7.14606e-18)
(3.22651 2.39743 -2.49303e-17)
(2.86368 2.53484 6.7118e-19)
(3.14256 2.35936 0)
(3.41235 3.59291 5.87938e-18)
(3.93701 3.7187 6.10145e-18)
(3.63863 4.00953 -7.35376e-18)
(4.16503 3.87439 -2.22686e-18)
(4.42327 3.979 -3.53693e-19)
(4.4172 4.05476 3.59974e-19)
(4.02285 3.16104 -1.09725e-17)
(4.41823 3.3979 2.03176e-18)
(4.72622 3.40946 0)
(4.72862 3.2663 -2.63863e-18)
(4.82333 1.55964 3.58015e-18)
(5.46322 1.44072 3.68577e-18)
(5.04707 1.25699 5.54724e-18)
(4.65476 1.6795 -7.11099e-18)
(4.9397 2.02145 0)
(5.28023 1.92961 0)
(4.307 1.73708 9.93561e-20)
(4.05358 1.40077 0)
(4.05979 1.3181 7.4353e-18)
(4.2555 1.3914 6.2908e-20)
(4.41164 2.09357 3.76185e-17)
(4.19795 2.3858 8.98492e-18)
(4.22361 2.23104 -1.01564e-17)
(3.93215 2.13145 1.07019e-17)
(3.84272 2.09996 6.57783e-18)
(3.71802 2.0099 -6.78783e-18)
(5.03657 0.0140254 9.75931e-18)
(5.01977 0.0116864 0)
(5.01951 0.0114312 5.89399e-18)
(5.03078 0.0139286 -1.42078e-17)
(5.02307 0.0185845 6.64775e-18)
(5.01642 0.0268955 -1.29602e-17)
(5.01313 0.0242102 0)
(5.01255 0.0222452 -2.8672e-18)
(5.01373 0.0162228 7.21956e-18)
(5.01195 0.0189806 -3.68826e-18)
(5.01085 0.0195466 2.80581e-18)
(0.0362338 6.40641 0)
(0.0232721 6.43789 0)
(0.0924043 6.46175 0)
(0.0468381 6.40167 0)
(0.257461 6.42224 -9.06845e-19)
(0.297316 6.50789 1.60657e-19)
(0.356815 6.29557 1.21245e-19)
(0.376464 6.50598 -1.01835e-18)
(0.148242 6.41998 4.66986e-19)
(0.157497 6.42806 -3.85651e-19)
(0.238175 6.45974 -4.03035e-19)
(0.130514 6.52675 9.86197e-19)
(0.0920855 6.50229 1.73065e-19)
(0.0706394 6.4749 9.56265e-20)
(0.242449 6.43523 -1.45833e-18)
(0.308268 6.44053 0)
(0.418349 6.20181 9.34783e-19)
(0.451444 6.2152 3.80631e-19)
(0.779347 6.10451 -6.88306e-19)
(0.55477 6.16628 0)
(0.577135 6.09337 -5.53581e-18)
(0.793668 6.06738 3.71459e-18)
(0.683884 6.10173 -1.9479e-18)
(0.486134 6.21755 1.15948e-18)
(0.343429 6.18834 0)
(0.0252221 6.33854 -4.57806e-19)
(-0.0272209 6.51722 -8.34199e-19)
(-0.00972403 6.41058 0)
(0.0357003 6.55672 -6.02291e-20)
(0.0331443 6.49545 3.01096e-19)
(-0.0326814 6.38348 -3.89445e-20)
(-0.049064 6.38105 5.15375e-19)
(-0.0594446 6.37106 -2.31854e-19)
(-0.0464504 6.36123 -6.80916e-20)
(-0.0126867 6.37672 0)
(-0.0628628 6.3707 0)
(-0.0825236 6.38528 -1.27872e-19)
(-0.0774117 6.36775 3.90171e-20)
(-0.0686057 6.37622 0)
(-0.0781739 6.38825 -1.19783e-19)
(-0.0811283 6.3911 2.20664e-19)
(5.06182 0.055164 0)
(5.08082 0.0476132 -9.97005e-19)
(5.04453 0.0850689 -7.29774e-18)
(5.06995 0.0799355 0)
(5.08234 0.0787013 0)
(5.03288 0.0500301 -8.62559e-20)
(5.02779 0.0509303 1.16559e-17)
(5.02123 0.0543305 1.36224e-17)
(5.00745 0.056247 0)
(4.98946 0.0554854 0)
(5.02585 0.0849121 7.13872e-18)
(4.99051 0.0807022 0)
(4.98965 0.0773302 0)
(-0.0726102 6.37929 0)
(-0.0744512 6.35267 4.45614e-21)
(-0.077511 6.35576 2.26488e-20)
(-0.0812076 6.36589 0)
(-0.0761456 6.36107 -1.58283e-20)
(-0.0809638 6.35967 1.21826e-20)
(-0.0814397 6.36111 0)
(1.75418 5.74948 0)
(1.34491 5.96711 -3.3821e-19)
(1.22111 5.83442 0)
(1.82996 6.03542 -8.5581e-19)
(2.14333 6.56614 0)
(1.89771 6.40379 9.34363e-19)
(2.27801 5.67404 -2.07061e-19)
(2.41066 5.65356 -1.12963e-17)
(2.55401 5.63592 1.35784e-17)
(2.01993 5.78862 2.7165e-18)
(1.95417 5.66054 0)
(2.14855 5.52207 0)
(2.31644 5.69683 0)
(2.18634 5.80394 -9.89933e-18)
(1.60301 5.79136 -4.97282e-18)
(1.84306 5.60126 -1.18313e-18)
(1.924 5.62771 7.88367e-19)
(1.5883 5.88414 0)
(1.87859 5.88182 0)
(1.69945 5.93788 -2.9619e-18)
(1.73007 5.78014 0)
(3.13073 4.86629 0)
(2.89971 4.52256 -6.68797e-18)
(2.89861 4.55911 -3.82614e-19)
(2.88242 4.81448 0)
(2.93698 4.7363 1.02983e-17)
(3.7697 4.13764 -1.66837e-18)
(3.79081 4.71489 0)
(3.69814 4.59579 1.88543e-18)
(3.35602 4.65444 0)
(3.30998 4.4084 0)
(2.84987 5.47619 -5.46833e-18)
(2.78837 5.44455 -3.11129e-18)
(2.63428 5.21672 5.55198e-18)
(2.64682 5.31118 -1.81614e-18)
(2.82728 5.59211 0)
(2.7225 5.56648 2.30489e-18)
(2.99002 5.56285 -3.44561e-18)
(2.91402 5.56371 -1.93857e-19)
(2.43094 5.31923 0)
(2.54158 5.21784 -2.05001e-18)
(2.6664 5.28459 0)
(4.17832 1.06358 0)
(3.99006 0.871751 0)
(3.86128 1.01797 0)
(4.12612 1.09579 -1.11411e-17)
(4.00412 1.10833 6.66622e-18)
(4.56332 0.327273 -5.24415e-18)
(4.59436 0.525635 0)
(4.45991 0.538035 3.13965e-18)
(4.33347 0.343214 1.08202e-17)
(4.36772 0.345142 -6.74305e-18)
(2.986 6.52993 1.22809e-18)
(3.03008 6.28326 0)
(2.97471 6.47695 3.84087e-18)
(1.70314 6.69545 -4.0208e-18)
(2.35892 5.40483 -5.58987e-18)
(2.7322 4.17647 8.57848e-18)
(2.88625 4.40637 0)
(2.4603 3.47744 -2.64e-18)
(2.55866 3.54818 1.37154e-17)
(2.13032 3.01909 -4.16691e-18)
(2.60939 2.89461 4.23811e-18)
(3.15196 2.73931 9.33367e-18)
(3.32763 2.8036 0)
(3.03294 3.25834 0)
(2.75798 2.98641 0)
(4.69592 2.80752 7.75123e-19)
(4.2702 2.60664 -9.02674e-18)
(4.44793 2.78903 5.76484e-18)
(4.58412 2.38828 -6.85196e-18)
(4.93555 2.25971 0)
(5.09583 2.6937 -1.44176e-18)
(4.06229 1.87116 -1.50514e-17)
(4.04026 1.79063 -1.95677e-17)
(3.87865 1.86252 1.21381e-17)
(3.77202 1.70249 -1.30003e-17)
(4.03922 1.50908 -9.82684e-18)
(3.88656 1.50729 1.19963e-17)
(5.02842 0.0254209 -7.34741e-18)
(5.02459 0.0257312 1.39001e-17)
(5.03958 0.0170581 9.57524e-18)
(5.04706 0.0188394 -1.10209e-17)
(5.04338 0.048515 0)
(5.02767 0.0461875 -1.773e-17)
(0.211462 6.24119 1.10706e-19)
(0.183943 6.27434 0)
(0.328666 6.2049 8.10695e-19)
(0.369437 6.24006 -6.61655e-19)
(0.269487 6.27288 -2.30197e-19)
(0.244958 6.25648 0)
(-0.0600982 6.3677 0)
(-0.0718146 6.366 1.80398e-20)
(-0.073782 6.36171 -1.41666e-20)
(-0.0765566 6.36121 9.30232e-21)
(-0.0675266 6.37618 5.00304e-21)
(-0.0653884 6.37912 1.87442e-20)
(2.20788 5.34942 -6.64947e-18)
(2.07791 5.45051 7.05518e-18)
(1.87803 5.8616 -5.57628e-19)
(1.97642 5.59431 2.48174e-19)
(2.97999 5.84561 0)
(2.46089 6.2843 3.24376e-18)
(2.65965 6.29979 -3.12254e-18)
(2.0961 5.98217 5.69683e-19)
(2.44006 5.54786 0)
(2.56948 5.55888 0)
(1.55495 5.71418 7.47831e-18)
(1.4875 5.77344 1.12832e-17)
(1.6347 5.81829 -7.89509e-18)
(1.36256 5.80435 -1.56629e-18)
(1.34433 5.89247 2.32501e-18)
(1.05991 5.92799 -5.97208e-18)
(2.64457 5.58668 -7.70316e-18)
(2.79461 5.58113 0)
(2.72706 5.58716 -7.27455e-18)
(2.55421 5.56267 0)
(2.53732 5.53515 0)
(2.32134 4.968 -5.81551e-18)
(2.62075 5.49025 -3.9568e-18)
(2.42403 5.54702 3.92068e-18)
(1.67702 3.4795 0)
(2.23412 3.65574 -4.8753e-18)
(2.60057 4.03226 -5.38371e-18)
(2.03467 4.62286 0)
(1.72912 4.97616 4.26302e-18)
(1.69221 4.8218 0)
(3.41075 3.42211 -1.29442e-17)
(3.72423 3.30212 1.84414e-17)
(3.73712 3.15774 -1.9276e-17)
(3.29723 3.26808 -1.75231e-18)
(3.50629 3.03055 -7.56162e-18)
(2.64992 5.30355 3.08758e-18)
(2.64101 5.18291 -5.94297e-18)
(2.37371 5.05084 9.14807e-18)
(2.63208 4.78688 -6.23621e-18)
(2.72192 5.05417 -6.36839e-18)
(2.77711 5.05337 -6.2024e-19)
(2.74329 5.03756 5.07924e-18)
(2.67575 4.89624 5.3694e-19)
(2.65325 4.95864 3.19954e-18)
)
;

boundaryField
{
    wall-4
    {
        type            noSlip;
    }
    velocity-inlet-5
    {
        type            fixedValue;
        value           uniform (5 0 0);
    }
    velocity-inlet-6
    {
        type            fixedValue;
        value           uniform (0 5 0);
    }
    pressure-outlet-7
    {
        type            zeroGradient;
    }
    wall-8
    {
        type            noSlip;
    }
    frontAndBackPlanes
    {
        type            empty;
    }
}


// ************************************************************************* //
