/*--------------------------------*- C++ -*----------------------------------*\
| =========                 |                                                 |
| \\      /  F ield         | OpenFOAM: The Open Source CFD Toolbox           |
|  \\    /   O peration     | Version:  4.0                                   |
|   \\  /    A nd           | Web:      www.OpenFOAM.org                      |
|    \\/     M anipulation  |                                                 |
\*---------------------------------------------------------------------------*/
FoamFile
{
    version     2.0;
    format      ascii;
    class       surfaceScalarField;
    location    "6";
    object      phi;
}
// * * * * * * * * * * * * * * * * * * * * * * * * * * * * * * * * * * * * * //

dimensions      [0 3 -1 0 0 0 0];

internalField   nonuniform List<scalar> 
1300
(
18.7548
9.37738
-22.2119
18.7548
-22.8007
9.37738
-22.2194
22.2194
-7.6352
7.6352
9.37747
9.3773
-16.7395
16.7395
-15.9908
15.9908
-15.0233
15.0233
-8.78902
8.78902
-8.57891
8.57891
9.15145
-9.15145
-18.8504
18.8504
-9.8001
9.8001
-19.9543
19.9543
16.1563
-16.1563
-17.3933
17.3933
-3.43744
3.43744
-2.56334
21.3181
16.1914
16.1914
-13.43
13.43
-7.84793
7.84793
10.4371
-10.4371
33.2964
-33.2964
-11.0845
-12.0678
4.78907
-28.8716
-18.0117
-18.0117
-14.0674
14.0674
-4.69002
4.68737
15.9843
-15.9843
-7.03526
7.03526
-22.5766
0.357178
-22.5766
22.1224
0.096986
22.1224
-8.18309
0.547894
-8.18309
20.7362
-20.7362
6.68681
0.948389
6.68681
16.0655
-16.0655
-9.37981
18.7573
9.37495
-9.37429
30.6924
-9.38048
18.7578
-17.2963
17.2963
-17.4322
0.692763
-17.4322
16.2424
0.497041
16.2424
-19.9074
19.9074
-15.8694
-0.121462
-15.8694
16.2042
-0.213343
16.2042
16.1774
-16.1774
-15.2856
0.262263
-15.2856
14.6684
0.354934
14.6684
0.562257
8.81513
-9.93964
14.627
-8.81513
0.0261086
8.75269
0.03633
8.75269
-8.64226
0.0633545
-8.64226
8.46011
0.118798
8.46011
9.8294
-0.677947
9.8294
-9.02532
-0.126129
-9.02532
-11.7467
-12.0565
-19.22
0.369646
-19.22
-10.0599
0.259821
-10.0599
9.60282
0.197281
9.60282
-12.1194
12.1194
-21.4562
1.50186
-21.4562
16.1095
0.0468179
16.1095
9.36919
9.38558
28.124
-28.124
11.9677
-17.0728
-0.32054
-17.0728
-17.7418
-15.5546
17.7418
-0.348422
-4.63315
1.19572
-4.63315
16.1544
0.0369971
16.1544
14.1878
0.480618
-14.1878
0.757787
17.9061
-17.9061
10.1886
3.24141
10.1886
-9.59127
9.59127
8.26689
0.19322
-8.26689
0.418961
10.363
0.0740656
10.363
-10.3885
-0.0486129
-10.3885
11.7842
-23.8519
-12.0701
18.4409
0.409462
-18.4409
0.42923
15.9961
-0.0117979
15.9961
-15.8482
15.8482
-16.006
0.02166
-16.006
-7.20843
0.173166
-7.20843
7.01025
0.0250047
7.01025
-21.9675
-0.609071
-21.9675
-21.9897
0.533498
21.9897
0.132745
8.05606
-8.05606
-8.84497
0.661881
-8.84497
-21.4043
-0.563255
21.4043
-0.668097
-20.7922
0.056045
-20.7922
-16.0352
0.0291666
16.0352
0.0303797
16.1087
0.0457586
-16.1087
0.0431358
-9.37143
18.757
-9.38333
18.7583
-16.1761
-1.12018
-16.1761
18.153
-0.856744
18.153
18.5829
1.37143
-18.5829
1.15067
15.9675
0.274891
15.9675
-19.6872
-0.22024
-19.6872
19.9876
-0.0802342
19.9876
15.8465
0.121086
-15.8465
-0.0229007
16.4695
-0.265293
16.4695
16.3232
-0.145744
16.3232
-16.067
-0.110394
-16.067
15.6301
-15.6301
15.4815
0.148681
-15.4815
0.195872
-18.4022
18.3536
-0.0338601
-18.3684
8.71883
8.71883
9.58501
0.24439
9.58501
-9.01577
-0.00955277
-9.01577
11.6989
-23.769
12.0389
-23.7856
12.0686
-40.9402
11.8364
-23.893
19.7924
-19.7924
19.5431
0.249313
-19.5431
0.3231
-10.1529
0.0930264
-10.1529
-11.1428
-0.976613
-11.1428
13.3425
-1.22305
13.3425
-15.9926
15.9926
-16.0546
0.0620067
16.0546
0.0548304
16.7663
-0.296796
-16.7663
-0.306555
5.68283
1.00398
-5.68283
1.04968
18.9539
-1.0478
18.9539
-17.0402
-0.865922
-17.0402
-10.1471
-0.00588581
10.1471
0.0415225
-9.91452
0.323243
-9.91452
-18.5399
0.171481
-18.5035
-10.217
-10.217
3.85041
18.4774
-16.016
-0.0510555
16.016
-0.0198434
15.9247
0.0679393
-15.9247
0.0765194
-15.7567
0.12659
15.7567
0.0914349
-7.41901
0.210581
-7.41901
-7.32832
7.32832
-7.11703
-0.211291
7.11703
-0.10678
8.52226
-0.466197
8.52226
9.25586
0.346962
-9.25586
0.410886
-20.2667
-0.52549
-20.2667
18.8197
-0.666656
18.8197
-16.5759
-0.464316
16.5759
-0.252731
-0.0354998
18.3891
-8.68333
0.0410695
8.68333
-18.4632
18.5043
-8.21917
0.800169
8.21918
1.36583
9.28665
0.304618
-9.28666
0.270887
19.95
0.0375916
-19.95
0.157608
-10.3185
-0.824337
-10.3185
-14.7747
-1.4014
14.7747
-1.43221
-18.8714
-0.263496
19.1349
-18.7526
10.178
0.185004
-10.178
18.6893
-7.63782
-0.41824
7.63782
-0.309497
9.0882
-0.565938
9.0882
19.9893
-1.03533
-19.9893
-0.27747
-19.3343
-0.352845
19.3343
-0.514638
-9.65652
-0.661961
9.65652
-0.568324
-21.2859
21.3229
9.40649
-11.6635
-12.1884
-27.2181
9.35302
9.40399
21.3207
-25.3364
-15.6038
-24.9072
12.331
-12.0602
-17.3348
16.6569
36.7791
-36.723
-28.6742
28.729
31.8168
-31.7864
9.3887
9.36858
38.3647
-37.6719
-39.4317
38.3116
36.4079
-36.5294
39.5742
-39.7944
-45.198
45.2356
-28.0271
28.2894
-32.4952
32.3848
-33.1902
32.9375
-11.6061
-12.1795
32.7323
-32.3627
41.6367
-41.9572
-40.549
42.0508
16.8641
4.45875
16.9099
-9.38017
18.7689
-9.37761
18.7841
12.0765
-23.6826
11.6924
-23.8809
21.6263
20.0103
-21.2779
-5.94019
-28.9843
28.9725
-28.5967
28.6882
42.4243
-42.0671
-9.39063
18.7592
-9.36766
18.7717
-16.891
-11.7832
16.8442
4.47653
20.0292
12.7031
-20.4387
-4.46848
-37.4202
36.3848
-38.8586
37.9926
-1.30914
9.62395
-8.3148
6.53878
-2.01915
11.6431
10.3119
10.3023
9.69349
-9.38888
2.36666
-10.6815
-10.2625
-13.0357
13.6975
13.0015
-12.0531
28.5798
8.19923
27.9117
-26.5284
-10.1947
-27.0538
18.9417
9.78732
19.0037
20.1146
11.7022
20.1438
15.0698
-15.1013
0.0315371
-15.1228
30.1926
3.65787
-26.9061
-22.4295
24.5144
13.8503
25.0114
-26.4169
-11.255
-25.2662
-23.6795
-15.7523
-25.0809
25.2943
13.0173
24.4375
-29.9183
29.4037
24.2435
12.1644
24.0302
-24.1288
-12.4006
-24.1517
37.4339
-9.56295
-27.8709
-25.5058
-19.6922
25.586
13.9882
27.4364
17.7992
27.594
12.8006
24.6332
-26.7888
7.09655
-18.8219
-9.20519
-18.626
18.185
10.1044
18.5399
-20.3716
-12.1236
-20.4226
-20.5586
-12.6316
20.7044
11.6804
-20.9724
-17.8861
21.4367
11.5007
11.0226
-26.6264
12.8703
-25.0498
-22.8791
-9.4836
-22.556
14.7554
9.21209
-23.9675
-8.92722
38.7483
-18.7379
32.8081
-25.9139
-16.0434
-26.2204
-31.9652
-8.58379
-31.4317
-21.6075
20.7831
-22.3394
21.1163
37.1043
-20.3115
-16.7929
-19.5262
-12.2602
19.4831
-2.57316
-18.4411
18.4726
0.327785
19.1119
23.5706
20.9975
-18.9921
-9.60464
-18.9156
18.8214
9.86679
18.948
31.7195
10.7048
31.8165
-30.4751
-11.5921
-31.0841
19.9404
-19.7672
14.591
-14.5969
25.1854
12.8072
-24.1376
-13.2825
29.572
-14.7075
-14.8645
-20.1128
19.2796
0.833177
-8.46967
-1.93088
1.50655
-9.90597
-7.42886
10.0321
0.27024
19.5498
12.121
-9.10471
9.42796
10.0302
10.2234
-0.0390819
12.6704
-11.8702
26.8718
-12.7181
-14.1537
25.48
-26.0432
-5.60415
-25.9908
20.3866
1.8685
8.38243
-7.18671
-10.3578
-2.67788
-9.9469
7.78645
5.21502
8.79043
4.82593
8.87162
-14.3131
2.63357
11.6795
-9.48718
-9.41951
-17.7413
-4.99554
22.7368
26.2744
10.1104
-25.997
-1.05689
13.7805
-13.5832
-3.87669
-13.8646
10.1417
-14.0184
-17.0001
-9.22309
26.2232
-16.5022
-2.41343
16.4342
2.56948
-18.6698
-10.3145
18.6481
1.49567
-15.2278
30.2705
-15.0427
-24.8324
12.6064
17.5863
22.3937
-23.6862
12.0686
11.6176
-6.09994
21.1175
3.89399
21.3923
-32.92
21.665
27.6157
14.4351
-28.9871
3.72092
-29.1991
33.471
-29.4824
-3.9886
16.9745
16.4965
19.1444
17.9599
-13.9746
33.119
-4.75784
-24.7246
33.9569
-19.5218
20.4829
-40.0047
-38.4428
13.7183
-25.2142
31.1286
-5.91443
-9.21376
-20.7045
34.4279
-3.06631
-31.3616
21.3712
-19.039
-19.1945
38.2335
-28.6019
31.595
-9.26143
-22.3336
-24.9316
-14.8628
25.2844
4.11921
-35.3885
42.4851
-10.7553
21.1261
2.90415
20.8608
13.5982
-21.0841
7.48596
15.0038
-24.2652
8.68227
-29.7664
-17.6645
34.2295
-16.5651
-27.1481
-24.4467
-2.70133
7.21687
35.2682
-25.0161
19.1594
5.8567
16.267
2.681
-16.4157
-2.21037
1.63887
21.8062
-23.4451
20.1788
20.6594
16.2854
5.52089
18.7786
10.194
-18.7587
-1.66388
-19.9748
7.34321
-8.29438
-17.5142
24.8574
-19.6586
2.14444
-13.0718
-17.1385
30.2103
-22.277
14.9589
15.3116
24.8257
-23.7993
6.66085
-11.7541
-12.0453
12.9978
-21.2921
9.3425
15.5149
20.8432
2.9571
17.4765
16.753
-26.6885
1.63874
29.4562
-24.9877
6.21012
21.3839
-25.3695
0.922782
-21.6332
3.83784
-22.5758
-20.1296
22.8736
-31.4574
-17.1312
29.0059
2.81059
-29.1387
-2.293
-15.0785
-6.52899
-15.7404
-6.97553
-15.3639
-20.9502
-4.44265
-16.5075
16.3405
-16.6195
-8.46132
18.0518
3.06458
-17.8794
17.4611
-18.1471
17.5811
0.521693
17.9509
21.5192
9.25894
-11.851
21.1099
-22.6893
33.3941
-39.3633
16.6739
19.6056
-31.1977
-19.7576
12.2525
7.68787
12.2775
21.5632
-24.2222
2.65899
-23.6372
28.0901
-4.45295
-36.7781
13.1409
-15.2149
13.2979
1.29311
13.3909
3.29124
11.6811
-14.9724
-11.3056
-11.2641
-11.2155
-16.4775
27.6929
5.68337
-16.2755
10.5921
-16.6869
22.3702
-0.42676
-15.8488
25.3784
-13.6973
26.6715
-17.1136
9.55789
15.8747
27.0642
-11.1895
20.9727
-8.16554
8.78726
-19.9768
-7.6902
-14.5393
24.6437
-15.671
17.8154
-1.19856
19.014
-19.3891
4.68163
-3.10376
17.5557
18.3134
20.5493
-15.0284
14.2919
-22.4575
-5.68485
-19.5004
-3.9855
-0.157414
-18.429
18.5864
18.1664
-18.3238
-9.35277
19.8122
-10.4595
16.239
-9.99335
-6.24568
-9.67347
-10.0937
9.46289
3.20749
19.4465
1.44022
-11.4336
-10.43
-9.06416
15.5184
11.3534
-9.06374
9.89692
7.55719
0.825243
3.1131
5.67733
9.15025
-6.03715
0.459709
8.69054
-6.727
10.0775
3.70295
-10.4245
0.477571
-6.72179
16.8635
4.95775
-10.1728
4.13562
4.67486
-17.393
23.4393
-12.3534
-11.0859
28.1142
5.48386
-17.8373
20.5069
-18.6384
11.3155
-16.311
-6.5218
-25.1602
-16.961
-11.9632
22.5553
-15.7297
25.8401
5.55527
-24.7832
30.3385
-17.3645
8.1414
-14.6312
18.3341
-5.00575
-9.62545
13.4279
12.7953
-14.1975
0.332881
-0.769647
11.1821
-11.9518
-2.83626
-12.3234
-22.4932
23.9888
-10.3189
22.3876
10.791
-9.33488
31.7224
8.98115
-18.316
-15.8513
-18.2647
-6.69844
15.6952
-3.26869
-20.883
-25.6023
20.7619
0.630407
-32.8987
36.6608
-3.7621
-19.0485
-2.61654
19.5911
-26.6396
2.37435
-17.9573
18.7036
22.5975
23.2279
-30.7626
-0.599034
-17.7453
3.95442
-21.6997
20.4509
-9.69944
23.4177
-26.4842
18.0229
-23.4196
19.4291
-2.27058
19.9297
-12.4438
7.94117
-22.804
-18.6848
24.9459
-12.7815
27.85
-14.6967
42.5467
-25.452
24.8722
17.6745
-5.18596
-21.0345
-24.4017
19.2157
0.47049
21.3312
24.2159
-14.0219
22.552
10.8637
-22.6178
-10.4284
-31.6437
9.02591
-16.3321
-9.24393
18.2698
15.5818
18.2628
6.22458
-16.0524
23.9664
-26.6678
-7.40137
-12.7283
24.0734
-4.85766
14.5457
-27.274
-8.03005
17.9853
-1.52189
-16.4634
2.32616
-19.4573
8.27539
-27.7327
23.182
-25.475
5.11231
-20.3272
-12.7671
-13.0766
-5.23501
-12.9121
-17.2238
11.9888
-4.08286
13.3783
-19.8591
18.3373
-8.23099
20.2197
-13.5234
-2.21701
14.0918
3.48938
23.7091
2.30422
-22.0619
-10.7596
20.2799
-9.52029
4.75874
-16.1248
4.15515
11.4583
16.6559
-31.8449
0.647238
-21.4146
-9.2983
16.9862
10.5139
28.6803
4.45815
18.6596
-1.67343
23.1178
10.6041
10.4973
-14.3032
16.9622
4.28317
20.9571
-4.17957
13.7375
9.21134
9.47116
4.11202
11.2556
7.05784
15.9372
0.964866
-10.2993
8.15998
-17.2241
-3.27358
-16.9798
-0.322869
10.4612
-10.7841
16.3105
-4.95706
6.79018
-0.112655
-10.5066
10.6192
-14.2663
-9.68134
-0.990798
-7.61698
11.7526
9.24653
-10.7618
-3.50452
1.61599
-18.577
14.695
-14.3622
-1.56686
28.7717
-13.2985
1.34672
-5.15711
-10.9767
-13.6546
13.177
30.253
1.46947
15.2102
25.4583
15.1438
1.12184
15.2083
-21.1227
-14.5581
-21.7217
-1.27086
18.3202
7.42849
27.8397
25.103
20.2453
-7.02866
-33.6964
26.3475
-9.38526
21.8945
-5.4311
-22.3016
22.611
10.7831
-25.4216
-0.0533599
-22.355
-31.7402
-1.21697
19.5542
-22.4922
20.2752
13.7462
2.76135
-10.7702
-2.3064
10.9814
-0.484137
22.6336
-1.17802
-16.8959
18.074
-9.28322
6.00964
1.1869
8.71001
11.8061
6.84908
-10.0469
-20.831
-9.45119
-7.94177
-20.5371
2.19976
-11.4463
12.8847
-6.87502
6.63898
11.1989
17.9891
-3.66467
-14.6591
14.1241
-7.48515
10.504
)
;

boundaryField
{
    wall-4
    {
        type            calculated;
        value           uniform 0;
    }
    velocity-inlet-5
    {
        type            calculated;
        value           uniform -18.7548;
    }
    velocity-inlet-6
    {
        type            calculated;
        value           uniform -9.37738;
    }
    pressure-outlet-7
    {
        type            calculated;
        value           nonuniform List<scalar> 8(22.2119 22.8007 23.1522 24.0826 23.8032 23.8543 23.7378 23.905);
    }
    wall-8
    {
        type            calculated;
        value           uniform 0;
    }
    frontAndBackPlanes
    {
        type            empty;
        value           nonuniform 0();
    }
}


// ************************************************************************* //
