/*--------------------------------*- C++ -*----------------------------------*\
| =========                 |                                                 |
| \\      /  F ield         | OpenFOAM: The Open Source CFD Toolbox           |
|  \\    /   O peration     | Version:  4.0                                   |
|   \\  /    A nd           | Web:      www.OpenFOAM.org                      |
|    \\/     M anipulation  |                                                 |
\*---------------------------------------------------------------------------*/
FoamFile
{
    version     2.0;
    format      ascii;
    class       volVectorField;
    location    "1";
    object      U;
}
// * * * * * * * * * * * * * * * * * * * * * * * * * * * * * * * * * * * * * //

dimensions      [0 1 -1 0 0 0 0];

internalField   nonuniform List<vector> 
918
(
(4.97342 -0.0394148 0)
(0.0181975 4.96105 0)
(-0.234004 6.2328 0)
(4.88769 0.102963 0)
(-0.0720718 6.13209 -9.14095e-21)
(-0.0283413 4.93192 -3.08117e-17)
(4.47597 6.34081 1.03695e-17)
(2.89708 1.53492 -2.74387e-19)
(4.99223 -0.013173 0)
(0.0423988 6.3552 0)
(0.0681653 6.1889 0)
(4.71155 0.0812332 0)
(-0.129603 4.99492 0)
(-0.0162627 4.82997 0)
(-0.145414 6.08039 -4.55021e-18)
(0.019219 6.11007 -7.14358e-20)
(3.66377 0.722967 1.73834e-17)
(1.01605 7.18317 8.2289e-18)
(4.99808 0.137819 0)
(0.0850466 6.19109 0)
(1.56729 1.60197 -1.48244e-17)
(4.89198 0.0199861 0)
(4.91794 -0.00201083 0)
(4.92913 0.0580857 0)
(4.41486 0.11095 0)
(0.0667857 4.35186 0)
(-0.0831773 4.85444 1.31577e-17)
(-0.0573772 6.24378 0)
(-0.0229519 6.23134 0)
(-0.0254714 6.25846 0)
(0.0217967 6.36282 0)
(-0.0690031 6.16186 7.90389e-21)
(-0.0562752 6.09931 0)
(-0.0185745 4.98369 -1.18216e-21)
(-0.021816 4.9988 2.26328e-17)
(0.00416671 5.00301 0)
(4.92734 0.0349824 0)
(2.39287 3.15079 3.44692e-18)
(4.80252 6.19563 -1.42534e-17)
(5.5012 5.41496 1.76316e-17)
(3.87992 6.71143 -2.09601e-18)
(3.66211 6.91148 1.24744e-17)
(2.92786 1.70388 2.68102e-19)
(3.04698 1.44536 0)
(6.18995 3.39742 0)
(2.84091 1.73219 1.37582e-18)
(2.67846 1.65738 -1.29285e-18)
(4.91771 0.0251458 0)
(4.99551 0.00210465 0)
(4.99918 0.0122476 0)
(4.87324 -0.0555741 0)
(4.99773 -0.012426 0)
(5.00916 0.00363681 0)
(-0.0498891 5.85663 -4.54398e-18)
(0.0220311 6.4491 0)
(0.110102 6.46212 0)
(0.0322362 6.36698 0)
(0.0522889 6.26142 0)
(-0.0214902 6.08052 0)
(0.0292115 6.27225 0)
(0.0328822 6.20304 0)
(0.041001 6.25339 0)
(0.0386981 6.20969 0)
(5.00975 -0.00551824 0)
(4.81381 0.0680759 0)
(4.74229 0.00584239 0)
(4.70581 0.0667868 0)
(4.69109 0.0277401 0)
(-0.00371633 5.00825 1.18661e-17)
(-0.00183438 4.99597 0)
(-0.0126835 4.99494 0)
(-0.0107652 5.00436 1.63743e-22)
(-0.0271866 4.94953 -1.74931e-17)
(-0.110538 5.02848 0)
(-0.0954607 5.00021 0)
(0.0453984 4.95364 3.71431e-23)
(0.0061106 4.86477 0)
(0.0866355 4.94292 0)
(0.0796119 4.73564 0)
(0.77164 7.01626 0)
(-0.272268 7.2942 0)
(0.32976 6.21846 4.25465e-18)
(-0.040618 5.50995 0)
(-0.00607855 6.20909 0)
(0.0239183 6.17754 7.04247e-20)
(0.039643 6.08677 -9.88121e-20)
(3.68242 0.884814 -5.9657e-18)
(3.72425 0.590937 -6.39817e-18)
(3.64565 1.05768 -1.99063e-17)
(3.53954 0.963081 -1.32789e-17)
(0.713932 4.87064 0)
(1.37627 7.47212 -8.85253e-18)
(1.85431 7.49411 1.42349e-17)
(4.96933 0.127813 0)
(4.88121 0.174874 0)
(5.00295 -0.0153223 0)
(4.94527 0.0456244 0)
(5.05133 0.119182 -3.32557e-17)
(4.9698 0.0706146 2.61446e-17)
(0.0192087 6.26111 0)
(0.0151841 6.18537 0)
(0.000232735 6.25959 0)
(0.052031 6.22872 0)
(0.0383877 6.20761 0)
(1.97146 1.78891 5.00982e-18)
(2.09437 1.57738 0)
(5.04921 0.0515506 0)
(5.0162 0.0552587 0)
(4.67943 -0.0115486 0)
(4.59933 0.0337091 0)
(4.64656 -0.00159825 0)
(5.65528 -0.112429 0)
(4.36268 0.214381 0)
(4.08065 0.244271 2.35303e-17)
(0.0637194 4.94292 1.38678e-17)
(0.171571 4.81162 0)
(0.164834 4.79217 0)
(-0.0421805 4.63176 0)
(-0.0797777 4.91527 1.47871e-17)
(-0.0451616 4.80176 0)
(-0.109436 4.94579 -3.94843e-17)
(-0.165063 4.86605 1.4785e-17)
(0.0415708 6.28363 0)
(0.0307794 6.25716 0)
(-0.0348936 6.16523 6.78574e-22)
(-0.00893713 6.1792 0)
(-0.00271746 6.09807 0)
(4.99631 0.0411634 0)
(4.93625 0.0273274 0)
(4.80724 -0.0754687 0)
(4.97242 0.0540306 0)
(4.95553 -0.00482192 0)
(2.33579 3.6548 -4.30852e-18)
(2.22643 3.46496 0)
(2.44545 3.74681 5.26765e-19)
(2.49722 3.34708 0)
(5.07309 5.61601 -4.51812e-18)
(5.72058 4.8774 9.05915e-18)
(2.16369 7.51307 0)
(3.0753 7.19148 0)
(2.74094 7.34504 0)
(2.05424 4.25104 -3.63082e-18)
(3.21324 1.47939 0)
(3.29231 1.30607 3.43875e-18)
(5.50039 4.66143 0)
(5.90213 3.83405 0)
(5.85994 4.22368 -7.1025e-18)
(6.32245 2.99073 0)
(6.48615 2.57457 1.18212e-18)
(4.97655 -0.028979 0)
(4.99106 -0.00601286 0)
(4.94632 -0.0605893 0)
(4.98455 0.0625036 0)
(4.95486 0.0316601 0)
(4.92683 0.0525066 0)
(4.99447 0.000118006 0)
(4.97983 0.0112153 0)
(4.99599 0.00408759 0)
(0.0625378 5.97745 2.4413e-18)
(0.201846 5.73653 0)
(-0.0891244 5.93984 3.54455e-18)
(-0.0661606 5.89252 -2.81197e-18)
(0.678043 7.03223 -7.26343e-18)
(0.189536 6.61932 0)
(0.408272 6.7051 0)
(-0.0073476 6.30821 0)
(-0.046768 6.21853 0)
(0.0315994 6.12352 -4.86887e-21)
(-0.0234131 6.01801 0)
(-0.0305217 6.15325 -1.5759e-19)
(0.00150667 6.12866 2.7637e-19)
(-0.0541236 6.31114 0)
(0.0192121 6.25785 0)
(-0.0168624 6.20462 0)
(0.0261743 6.24948 0)
(0.0317434 6.16591 0)
(5.1217 0.014901 0)
(5.08427 0.0407039 0)
(5.07293 0.0818359 0)
(4.94472 0.0905368 0)
(4.82293 -0.00698262 0)
(4.91018 0.0235258 0)
(4.84613 0.0180587 0)
(4.8512 -0.0309813 0)
(0.0956569 5.03414 -9.98824e-20)
(0.0964312 5.0173 0)
(-0.0311455 5.05878 0)
(-0.00980037 5.00079 0)
(2.0664 8.10615 0)
(2.7871 7.009 2.14911e-18)
(0.153436 5.65358 0)
(-0.0164904 5.16109 0)
(0.00195922 6.19359 0)
(0.0324953 6.17814 0)
(0.0167532 6.18641 0)
(0.0150575 6.3543 -2.41156e-20)
(-0.00410315 6.23146 0)
(0.0091441 6.30573 0)
(-0.057466 6.10522 -8.49468e-20)
(-0.0142557 6.20786 2.53079e-19)
(0.0535699 6.24817 9.72897e-20)
(0.0744648 6.18519 0)
(3.83649 0.655781 9.79951e-18)
(3.84081 0.273795 -9.49514e-18)
(0.620974 4.98725 0)
(0.953056 4.83713 -2.12871e-18)
(0.504794 5.12056 -6.16894e-18)
(0.565874 5.07075 6.19296e-18)
(4.84478 -0.019957 0)
(4.87838 -0.0136905 0)
(4.88295 0.0661909 0)
(4.85213 0.0503882 0)
(0.02814 6.20848 0)
(-0.0338766 6.25075 0)
(-0.0278858 6.17035 0)
(2.57401 1.82198 1.12459e-17)
(2.26114 1.86787 -1.54288e-17)
(2.36335 1.62331 0)
(5.96462 0.50812 2.43092e-19)
(6.16851 0.233573 0)
(5.63973 0.222713 0)
(5.34754 0.011287 0)
(3.93178 0.434874 0)
(4.06704 0.30665 -3.73819e-17)
(3.95563 0.277654 1.42901e-17)
(0.122357 4.9891 1.3073e-17)
(0.10874 4.85217 2.82054e-19)
(0.113639 5.01393 -2.32484e-19)
(0.104528 5.03648 8.28188e-18)
(-0.0856271 4.97461 4.75079e-19)
(-0.161458 4.91964 -1.76352e-21)
(-0.0537786 5.06152 -7.49069e-18)
(-0.000453773 4.99304 5.8176e-18)
(0.0938847 5.04878 -8.83577e-18)
(5.0349 0.094788 0)
(5.05293 0.0269325 0)
(4.95119 0.0800883 0)
(4.91151 -0.0682131 0)
(4.94013 -0.0138109 0)
(4.87796 -0.120414 0)
(4.89834 0.0479812 0)
(4.91684 -0.0215939 0)
(4.85149 0.0114318 0)
(2.34373 3.98027 -3.33611e-18)
(2.1083 3.99927 0)
(2.35908 3.92208 1.12588e-18)
(2.25505 4.11062 8.22662e-18)
(2.35595 3.90315 -5.17705e-18)
(2.46427 3.65854 9.71499e-18)
(1.66685 4.546 1.85738e-17)
(1.7581 4.33441 3.77248e-18)
(3.46055 1.25663 1.3896e-17)
(3.366 1.37495 3.55954e-18)
(3.39709 1.08686 6.99938e-18)
(6.3571 2.32343 4.64615e-18)
(6.55594 1.73109 4.7449e-18)
(-0.000271319 5.97835 1.46853e-18)
(0.0598142 5.94709 0)
(5.39111 0.0971474 0)
(5.25993 0.0977733 0)
(5.21333 -0.0003693 0)
(0.07868 5.0627 0)
(0.0338073 5.01125 2.01774e-17)
(0.0212133 5.04929 0)
(0.0249883 4.94794 -1.7818e-17)
(0.049208 5.11885 5.14478e-18)
(0.0721544 5.08459 0)
(2.30597 4.33134 1.45042e-19)
(2.88829 5.55742 -6.44304e-19)
(2.15427 4.61584 -2.13869e-18)
(0.103123 5.11923 -1.28001e-17)
(0.108682 5.32471 0)
(0.0269531 5.0385 0)
(0.0296807 6.2047 1.2069e-20)
(-0.0275051 6.24976 -2.68664e-19)
(0.0261636 6.18245 -2.8522e-20)
(0.895544 4.9426 6.61015e-18)
(1.23067 4.71955 -4.59957e-18)
(0.166665 5.75319 3.99449e-18)
(0.300015 5.4215 -4.91038e-18)
(0.331061 5.38215 6.13131e-19)
(0.000303523 5.1517 -2.45584e-17)
(0.020226 5.16491 3.02715e-17)
(-0.00122501 4.90359 1.52552e-17)
(0.0935652 4.92871 -1.58474e-17)
(0.02109 4.82125 -1.556e-17)
(0.0345827 5.13384 -3.23217e-17)
(0.0231318 5.13303 3.0425e-17)
(1.96226 4.41346 0)
(2.12792 4.28598 -1.71268e-17)
(2.25603 4.11922 7.80146e-18)
(1.54024 4.531 9.07412e-18)
(1.64779 4.47223 -1.42554e-17)
(6.45386 0.764402 -1.88791e-19)
(6.50189 1.30732 0)
(6.56414 0.713163 1.60609e-18)
(-0.0526602 6.09489 -1.05894e-20)
(0.046638 6.10135 0)
(-0.0254283 6.00507 0)
(1.12566 4.78953 -2.32328e-18)
(1.32716 4.70872 -6.04368e-18)
(1.40354 4.59907 1.10712e-17)
(5.02373 -0.150355 0)
(4.96532 -0.148802 6.73186e-18)
(0.0134255 6.292 0)
(-0.0197277 6.31777 0)
(4.95806 -0.0239757 1.7131e-20)
(4.95874 -0.0261915 1.34372e-17)
(0.0242971 6.33549 2.86574e-20)
(0.0321023 6.33565 0)
(0.288396 5.42252 1.31892e-17)
(1.12068 6.46068 0)
(5.22779 3.35902 -3.15481e-19)
(5.01795 -0.0275379 -2.55002e-20)
(5.00769 0.0375362 0)
(5.009 -0.0224599 -6.25233e-20)
(0.198349 6.60661 0)
(0.198302 5.99858 0)
(-0.0259017 6.36198 0)
(0.0615956 6.24292 4.54272e-19)
(0.0674758 6.24551 9.44266e-20)
(4.95757 0.018722 2.6847e-20)
(5.19083 -0.0151057 0)
(5.26517 0.144033 0)
(0.0337019 6.19454 0)
(-0.0704238 6.3642 0)
(-0.0410821 6.35447 0)
(0.967881 7.09705 -4.33409e-18)
(4.95451 -0.150845 0)
(4.89119 -0.141622 0)
(5.04862 -0.000848801 7.86879e-18)
(5.01148 -0.0301692 -8.78768e-18)
(5.02348 -0.00932776 0)
(-0.0205578 6.19889 0)
(0.0380118 6.26682 0)
(0.0114366 6.19996 0)
(-0.0395146 6.35459 0)
(-0.00716307 6.32529 0)
(-0.0384568 6.33637 0)
(5.07932 0.00424869 0)
(5.05541 0.008511 1.43891e-20)
(3.37115 6.32141 6.80693e-18)
(5.04214 -0.0404829 -8.46752e-18)
(5.04388 0.0588676 1.00013e-17)
(4.97803 0.0193657 0)
(5.02148 0.00372637 7.59161e-18)
(4.90948 -0.0110632 -9.99595e-18)
(4.90489 0.00599791 0)
(-0.0437532 6.36594 0)
(0.000805433 6.32536 -2.12313e-21)
(-0.00478406 6.34852 1.46251e-20)
(5.75529 1.32081 6.56139e-18)
(5.47137 0.326735 0)
(0.433766 5.03536 -2.13324e-17)
(0.232808 4.7217 -1.44157e-18)
(0.611601 5.39273 2.731e-17)
(0.528595 5.49229 -8.07992e-18)
(0.607372 5.57819 0)
(0.110658 5.20487 5.15754e-18)
(0.292844 5.21804 2.13444e-17)
(0.362993 5.28074 -1.08472e-17)
(0.130325 5.07426 0)
(3.407 1.8083 0)
(2.97806 1.95487 0)
(5.14893 3.42695 3.70279e-20)
(5.10807 4.16714 1.25713e-18)
(5.65687 2.74731 0)
(5.67296 2.82074 0)
(5.07159 -0.0215468 -1.68548e-17)
(5.08069 -0.0230944 2.17105e-17)
(5.06922 0.0406353 0)
(5.0593 0.0417643 0)
(5.01558 0.0435312 0)
(5.04285 0.01969 0)
(5.08243 -0.0777204 0)
(5.10833 0.0194957 0)
(5.10182 0.082093 0)
(5.11568 0.0716831 0)
(0.196611 6.61082 0)
(0.103984 6.64181 0)
(0.21602 6.66775 0)
(0.189073 6.7439 0)
(0.277099 5.90089 0)
(0.318063 5.93403 -2.47127e-18)
(0.109173 6.07285 0)
(0.0965188 6.04681 1.17583e-18)
(0.0878753 6.25522 -9.32908e-19)
(-0.0443065 6.33915 0)
(-0.056245 6.32239 0)
(0.0370688 6.36994 0)
(0.0200899 6.42219 0)
(-5.10205e-05 6.20747 -1.6368e-19)
(0.0771953 6.2257 1.31399e-19)
(0.0645874 6.28714 1.88971e-19)
(0.0946249 6.28932 0)
(0.0260781 6.3054 -1.25075e-19)
(0.00122156 6.29676 -1.48052e-19)
(0.0162392 6.19152 1.21201e-19)
(0.0823292 6.2154 -1.82586e-19)
(0.077694 6.27945 -1.98118e-19)
(4.99012 0.0651471 1.57428e-17)
(5.01025 0.0712662 -1.75206e-17)
(4.98176 -0.00187526 -1.8153e-17)
(4.84511 -0.000886232 2.07146e-17)
(5.1692 0.00224844 0)
(5.20697 -0.0875866 0)
(5.18391 0.127273 0)
(5.24146 0.0513769 0)
(5.29465 0.107733 0)
(5.3068 0.349403 0)
(5.32521 0.15191 0)
(5.43266 0.152185 0)
(-0.010847 6.27971 -1.16857e-20)
(0.0649785 6.19741 0)
(0.0412896 6.21858 0)
(-0.0716318 6.35877 3.95061e-20)
(-0.0968558 6.39264 3.57859e-22)
(-0.00259345 6.11764 -4.93398e-20)
(-0.0100673 6.22493 5.0987e-20)
(0.032274 6.3011 0)
(0.0194914 6.26849 0)
(0.00575931 6.27213 0)
(-0.0180867 6.34557 0)
(-0.0337306 6.31455 0)
(1.55287 7.06936 6.60733e-18)
(1.52323 7.16393 2.8616e-18)
(0.984866 5.34414 -1.77221e-18)
(0.534645 5.44585 4.57681e-18)
(1.15792 5.73039 9.14434e-19)
(4.96136 0.0329859 0)
(4.89374 -0.103713 0)
(4.91268 -0.0368507 0)
(5.16214 -0.054205 0)
(5.0509 -0.0790597 0)
(4.98263 -0.105515 0)
(4.88087 0.0965355 0)
(5.03022 0.182796 0)
(5.0288 0.0446334 1.38927e-17)
(5.0657 0.0837351 -1.89496e-17)
(5.04125 -0.0428744 -1.40646e-17)
(5.04582 -0.0411344 1.73013e-17)
(3.39262 6.39736 0)
(2.8095 6.79563 5.19779e-18)
(4.14706 5.70097 3.38042e-18)
(4.0908 5.84955 -4.25978e-18)
(3.04789 5.05967 1.03027e-17)
(4.23157 0.612248 9.87391e-18)
(5.56539 0.410772 0)
(5.51678 0.834329 -5.18617e-18)
(5.6565 0.708441 -1.79363e-19)
(4.78342 0.605225 0)
(0.874727 5.1762 1.4145e-17)
(0.730324 4.81395 -2.646e-17)
(0.644712 3.54553 1.6391e-17)
(1.12882 1.67033 -7.35063e-18)
(0.933061 6.32677 5.22067e-18)
(0.66742 6.00121 0)
(0.768703 6.03986 -6.78392e-18)
(1.01631 5.47681 -3.80047e-17)
(1.16015 5.81417 0)
(0.0460239 5.1697 9.70434e-19)
(0.0119957 5.14332 -1.00107e-17)
(0.049497 5.10766 1.58281e-17)
(0.113536 5.12475 0)
(0.156819 5.19 0)
(3.17634 5.33341 0)
(2.49433 3.95646 -8.39731e-18)
(4.7035 5.18671 -1.75572e-18)
(4.64076 5.17082 0)
(3.88761 4.56522 -6.52366e-19)
(4.96599 4.2611 7.25593e-19)
(2.11064 2.19422 -1.94853e-17)
(3.4623 1.74604 -5.42991e-19)
(3.52842 1.57473 7.0539e-18)
(2.98743 2.12323 6.154e-19)
(2.81609 2.16836 -2.14994e-17)
(3.39598 1.79603 0)
(3.38727 2.10029 1.22574e-17)
(3.39865 2.0916 0)
(3.14662 1.94467 0)
(3.23205 1.82549 0)
(3.65627 3.10454 6.53113e-18)
(5.89422 1.44173 -4.58895e-18)
(5.79523 2.12313 0)
(5.76378 2.04277 0)
(3.93773 1.15402 1.14637e-17)
(3.78374 2.5621 -6.67195e-18)
(3.50617 2.37186 1.14604e-17)
(4.27764 2.06795 -1.087e-17)
(5.04663 0.076906 1.11983e-17)
(5.08337 -0.0375049 -1.02901e-17)
(5.06198 0.030486 0)
(5.06569 -0.0198273 0)
(5.07508 -0.0383557 -9.83983e-18)
(5.07978 -0.0784401 9.82304e-18)
(5.02252 -0.0355299 0)
(4.9745 -0.00845857 0)
(5.07085 -0.00978254 0)
(5.07795 -0.0489 0)
(5.0394 -0.00743254 0)
(5.03546 0.0359623 0)
(0.081653 6.61694 0)
(0.0778476 6.57047 0)
(0.216796 6.48912 1.78919e-18)
(0.965749 6.98344 2.26077e-18)
(0.320084 6.81573 4.85205e-18)
(0.427725 6.98894 -7.60999e-18)
(0.517463 6.59472 0)
(0.598205 6.22286 -1.06667e-19)
(0.524565 6.3937 0)
(1.07219 5.94842 -1.38589e-18)
(0.804438 5.80509 4.9583e-18)
(0.688359 6.24387 8.91899e-20)
(1.02162 6.73285 1.07224e-18)
(0.815656 6.60941 -8.83686e-19)
(1.27529 6.28298 6.72516e-19)
(0.962967 6.12075 0)
(1.06527 6.1843 -3.31993e-19)
(0.0877123 6.20835 -2.28759e-19)
(0.0926976 6.23359 0)
(0.279877 6.13901 1.21615e-18)
(0.152714 6.17073 0)
(0.130038 6.10271 -1.53029e-18)
(0.126651 6.22306 0)
(0.0616302 6.29262 1.71284e-19)
(-0.00311189 6.30959 0)
(0.0811768 6.27023 0)
(0.107672 6.26916 -1.85208e-19)
(0.0242806 6.25139 -6.18483e-20)
(0.0264081 6.26998 9.47359e-19)
(0.0220021 6.26183 6.84805e-21)
(0.0320314 6.168 1.87397e-20)
(-0.0814566 6.20401 8.04149e-20)
(-0.022602 6.32515 0)
(0.0341679 6.29592 0)
(0.0280028 6.21811 3.2401e-19)
(0.0791975 6.21478 1.89084e-19)
(-0.00921187 6.24212 -3.59274e-19)
(0.0340663 6.23056 0)
(-0.0268853 6.27077 1.65022e-19)
(0.0372702 6.27873 2.50896e-21)
(0.0873797 6.26599 -2.3534e-20)
(0.0832079 6.16561 -2.51099e-20)
(-0.0263806 6.16839 -8.30198e-20)
(0.00344444 6.27172 1.97209e-20)
(5.04799 -0.0225091 -9.14562e-18)
(5.01426 0.100009 1.01777e-17)
(5.02581 0.0235249 0)
(4.87447 0.288523 1.41608e-17)
(4.78809 0.137757 -1.74851e-17)
(4.64037 0.120033 2.13713e-17)
(4.8384 0.265872 -2.0519e-18)
(5.15905 0.0149754 0)
(5.18407 -0.0789527 1.02184e-17)
(5.16374 -0.049939 -1.03111e-17)
(4.96176 0.132106 -5.78736e-19)
(5.03302 0.0955322 4.79876e-18)
(4.8972 0.231525 0)
(4.83718 0.176279 -1.73863e-18)
(5.05168 0.183438 0)
(4.98648 0.143369 0)
(5.04091 0.0282303 0)
(5.05518 0.00653569 0)
(5.01348 0.0986195 3.6012e-18)
(4.97731 0.0458185 -7.33826e-18)
(4.69143 0.0517162 -3.92689e-18)
(4.76641 0.0507281 -4.14347e-18)
(4.91713 0.366433 8.59283e-18)
(5.22748 0.331567 0)
(5.0956 0.427867 0)
(-0.0630797 6.25701 -1.62128e-19)
(-0.0663084 6.24537 -4.72818e-21)
(-0.0587568 6.24368 0)
(-0.0306379 6.31749 1.68163e-19)
(0.0229868 6.28818 1.63209e-20)
(-0.00848947 6.31218 -9.74375e-21)
(0.0322573 6.29345 8.62784e-20)
(0.104819 6.21543 -9.90072e-21)
(0.0372797 6.14637 9.25944e-20)
(-0.0555396 6.38971 -1.61329e-19)
(0.0159699 6.30179 1.89895e-19)
(0.087413 6.2081 -1.34003e-20)
(0.00920833 6.07425 -1.28784e-19)
(1.53107 6.38394 -3.41121e-18)
(1.26528 6.28223 -3.24092e-19)
(2.8385 6.77588 -5.0301e-18)
(2.14015 7.02282 -3.16468e-18)
(2.1449 7.02837 0)
(1.14218 5.35671 1.78395e-18)
(1.24945 5.33922 2.70217e-18)
(0.64988 5.48498 4.75067e-19)
(0.737279 5.44824 -5.42554e-18)
(0.843603 5.44411 4.30164e-18)
(0.912969 5.44804 0)
(0.661781 5.46419 -3.99271e-18)
(0.459502 5.78728 6.16991e-18)
(0.592953 5.62956 -6.44464e-19)
(0.422728 5.78319 -8.97625e-18)
(2.04633 4.97491 1.09423e-17)
(1.73903 5.14291 0)
(5.13123 -0.0491578 2.61913e-19)
(5.11976 0.234007 -2.49207e-19)
(5.06788 0.18372 -4.14924e-18)
(4.98908 0.0678678 4.92462e-18)
(5.04042 0.029424 0)
(3.0728 5.89649 0)
(3.09113 5.20854 0)
(3.6376 4.82017 0)
(3.07364 5.08873 0)
(3.06015 5.03294 -5.7089e-20)
(3.05613 4.96611 0)
(2.4284 5.14608 6.38867e-20)
(1.89134 5.39387 0)
(2.14848 5.11084 -6.77013e-18)
(2.24867 5.17719 4.24754e-18)
(4.30967 0.734897 0)
(4.19397 0.831668 2.53491e-18)
(4.57355 0.470566 1.42628e-17)
(4.2906 0.512023 -5.58579e-18)
(4.23402 0.375099 -1.78977e-17)
(4.89328 0.943127 -1.10744e-17)
(4.57922 1.30474 -2.47396e-19)
(4.0438 1.35095 1.28617e-17)
(4.60834 1.08828 1.12801e-17)
(4.61368 0.711123 -1.78372e-17)
(4.44995 0.712015 2.33065e-18)
(4.28577 1.16628 -5.2901e-18)
(4.49111 0.968941 0)
(4.71769 0.820021 8.57231e-18)
(4.70313 0.802668 0)
(4.73293 1.0422 0)
(5.34405 0.556748 3.85896e-18)
(4.82143 0.707408 -2.22014e-19)
(4.87988 0.901791 -2.18139e-18)
(5.08653 1.04243 0)
(5.05849 0.219919 7.95428e-18)
(5.02669 0.221665 1.01317e-17)
(5.05486 0.256562 -7.59735e-18)
(5.07267 0.28407 -7.15601e-18)
(4.89607 0.321343 -1.0937e-17)
(4.71305 0.307609 0)
(4.69867 0.233267 0)
(4.61821 0.343067 -7.65003e-18)
(4.53054 0.36485 3.31163e-18)
(5.02915 0.433157 9.48968e-18)
(4.86712 0.487385 -1.11753e-17)
(4.90481 0.526933 9.73203e-18)
(4.93241 0.607458 0)
(4.91573 0.427098 0)
(4.93265 0.451379 -4.77948e-18)
(5.02814 0.452572 -7.62457e-18)
(2.80738 5.1102 1.96136e-18)
(2.53502 5.1467 -2.51774e-18)
(2.83359 5.20791 -3.98687e-18)
(2.7724 5.67351 6.79378e-19)
(3.03541 5.2381 -8.58491e-18)
(3.15527 5.36309 2.54414e-18)
(3.28459 5.10574 -1.72831e-19)
(2.83863 5.5716 -3.11769e-18)
(2.84142 5.4293 5.51733e-18)
(2.77772 6.00869 8.00865e-19)
(3.14757 5.68164 -1.01376e-18)
(3.2902 5.72023 0)
(2.69628 4.15045 -6.71469e-19)
(1.51133 3.17826 7.55785e-18)
(1.81023 2.70422 1.26468e-17)
(1.26929 2.58308 1.44534e-17)
(2.74424 2.16636 1.05951e-17)
(2.61441 2.40411 -2.11062e-17)
(2.28864 2.57223 1.74325e-17)
(2.25709 2.38923 -6.79181e-18)
(2.61766 2.18425 1.34918e-17)
(3.93818 1.3142 -6.43105e-18)
(3.7534 1.4474 0)
(3.80933 1.39217 2.77158e-19)
(3.30349 2.55192 6.82336e-18)
(3.20113 2.31934 -2.35358e-17)
(2.68386 2.56794 5.16547e-19)
(3.07193 2.26738 0)
(3.09687 3.54781 5.92826e-18)
(3.72798 3.82289 5.98009e-18)
(3.53578 4.01075 -7.31598e-18)
(3.91578 3.76311 -2.22816e-18)
(4.20511 4.03809 -3.36287e-19)
(4.21557 4.05123 3.35514e-19)
(4.03082 2.85324 -1.06754e-17)
(4.43096 3.30908 2.04117e-18)
(4.60016 3.39387 0)
(4.57324 3.25707 -2.70118e-18)
(4.72631 1.55749 3.29061e-18)
(5.44574 1.49318 2.82442e-18)
(4.99003 1.14109 5.00853e-18)
(4.54978 1.82878 -6.75054e-18)
(4.7846 1.92308 0)
(4.94319 1.8782 0)
(4.20199 1.71581 3.9212e-19)
(3.93223 1.52963 0)
(4.0704 1.45297 6.82436e-18)
(4.10828 1.37452 -2.37251e-19)
(4.25024 2.05632 2.56168e-17)
(4.10697 2.36351 8.47352e-18)
(4.07349 2.24478 -9.33558e-18)
(3.75809 1.95306 9.62996e-18)
(3.61356 2.02442 6.09966e-18)
(3.49252 2.13936 -6.35474e-18)
(4.95376 0.113995 9.09286e-18)
(4.98239 -0.121059 0)
(4.97774 0.0307229 5.93056e-18)
(4.98359 0.07805 -1.30279e-17)
(5.00322 -0.0345793 5.87691e-18)
(5.04473 0.162122 -1.24963e-17)
(5.00701 0.0194166 0)
(4.96498 -0.0798538 -2.58474e-18)
(5.00676 0.0435032 6.9981e-18)
(4.99511 0.0257575 -3.2944e-18)
(4.97027 -0.0377369 2.56492e-18)
(0.0702086 6.44917 0)
(0.0980529 6.28538 0)
(0.0646955 6.53325 0)
(0.0598628 6.49286 0)
(0.217903 6.21346 -7.8096e-19)
(0.224367 6.29207 -9.82598e-20)
(0.300711 6.36988 3.38863e-19)
(0.227678 6.26805 -1.20264e-18)
(0.143869 6.24443 1.93543e-19)
(0.120539 6.28243 -1.77297e-19)
(0.194948 6.29949 -5.49724e-19)
(0.121288 6.38211 1.06075e-18)
(0.104987 6.31538 1.44325e-19)
(0.0687546 6.27801 3.01463e-20)
(0.273393 6.13244 -1.45414e-18)
(0.262153 6.10146 0)
(0.297375 6.05793 9.39743e-19)
(0.391897 6.36314 3.41858e-19)
(0.73932 5.98883 -6.76947e-19)
(0.595429 5.86366 0)
(0.639474 5.77012 -4.88416e-18)
(0.789456 5.83954 3.41555e-18)
(0.489946 6.04043 -1.73904e-18)
(0.388527 5.96991 1.03073e-18)
(0.288454 5.83814 0)
(0.0394794 6.20278 -4.27084e-19)
(0.0369437 6.23451 -8.48484e-19)
(0.0110203 6.17945 0)
(0.0367848 6.22884 -3.32726e-20)
(0.0350291 6.19432 2.43046e-19)
(-0.000428353 6.35537 -6.42963e-20)
(0.0140225 6.35578 9.98248e-19)
(-0.028442 6.34534 -4.96305e-19)
(-0.0433677 6.30252 -1.79956e-19)
(0.0766476 6.32284 0)
(-0.00902977 6.37539 0)
(-0.0178354 6.33249 -1.80732e-19)
(-0.00255547 6.38262 3.67895e-20)
(0.0136753 6.38671 0)
(0.0366026 6.33481 -1.49572e-19)
(-0.00301134 6.31603 2.98798e-19)
(4.84737 0.119235 0)
(5.01566 0.254491 -8.4748e-19)
(5.07097 0.0180312 -5.91573e-18)
(5.02917 0.0694026 0)
(5.10919 0.223782 0)
(4.97656 -0.0549287 -3.49612e-19)
(4.90832 -0.00975526 8.95244e-18)
(5.00137 0.0428574 1.08324e-17)
(5.03137 0.0762981 0)
(5.0104 0.0572378 0)
(4.99757 0.0376425 6.02418e-18)
(5.00094 0.0547236 0)
(4.97943 0.0740259 0)
(0.109614 6.26918 0)
(0.0492698 6.06966 -7.44332e-20)
(-0.0240107 6.29396 -6.34675e-20)
(-0.0100523 6.33398 0)
(0.056917 6.04275 2.65125e-20)
(0.0513021 6.17877 9.34029e-20)
(-0.0105023 6.36215 0)
(1.64931 5.80638 0)
(1.22794 6.09886 -3.16966e-19)
(1.28999 5.93185 0)
(1.92689 6.18349 -1.1789e-18)
(1.98206 6.41885 0)
(1.74897 6.37669 1.19832e-18)
(2.22475 5.07086 -2.17526e-19)
(2.20144 4.99856 -1.28774e-17)
(2.3613 4.95534 1.5947e-17)
(1.7927 5.14542 2.75764e-18)
(1.89387 5.18641 0)
(1.9754 5.05649 0)
(1.99923 5.07695 0)
(1.80385 5.13045 -1.12332e-17)
(1.38405 5.32692 -5.11846e-18)
(1.74148 5.21813 -1.21273e-18)
(1.82351 5.24737 9.81356e-19)
(1.38135 5.25408 0)
(1.64632 5.23301 0)
(1.48369 5.25949 -2.96449e-18)
(1.61526 5.30145 0)
(2.96824 5.09832 0)
(2.79266 4.60379 -6.57979e-18)
(2.75482 4.4821 -3.76354e-19)
(2.87137 5.02897 0)
(2.83638 4.80037 1.00408e-17)
(3.74164 4.23182 -1.32102e-18)
(3.6769 4.68552 0)
(3.61649 4.59219 1.3182e-18)
(3.32175 4.73519 0)
(3.34927 4.45721 0)
(2.85605 5.08384 -4.85744e-18)
(2.81679 5.18678 -2.82569e-18)
(2.60812 5.12852 4.02097e-18)
(2.59797 5.13951 -1.55059e-18)
(2.81964 4.99563 0)
(2.69844 4.97569 2.38005e-18)
(2.98922 4.92075 -3.10105e-18)
(2.89195 4.91415 -2.1958e-19)
(2.34708 5.1608 0)
(2.60618 5.36531 -1.7618e-18)
(2.66414 5.41125 0)
(4.35911 1.04764 0)
(4.18766 0.825633 0)
(4.02079 0.890336 0)
(4.25845 1.1132 -1.03767e-17)
(4.01522 1.09813 6.3131e-18)
(4.49417 0.371602 -6.87457e-18)
(4.55975 0.409078 0)
(4.55588 0.404307 2.39565e-18)
(4.34784 0.299089 1.0071e-17)
(4.38216 0.336871 -6.4184e-18)
(2.72795 6.35821 8.83128e-19)
(2.76088 6.11801 0)
(2.76155 6.35882 2.60503e-18)
(1.54068 6.64799 -2.7197e-18)
(2.03074 5.56986 -4.47239e-18)
(2.47393 4.22338 7.87456e-18)
(2.53359 4.62684 0)
(2.27449 3.59037 -2.4587e-18)
(2.47344 3.53518 1.31223e-17)
(2.05792 3.08745 -3.88378e-18)
(2.51065 2.75614 3.74456e-18)
(2.87199 2.54974 8.65942e-18)
(3.21341 2.60442 0)
(2.95656 3.09219 0)
(2.69327 2.91523 0)
(4.80087 2.71635 4.73937e-19)
(4.10842 2.43041 -8.73002e-18)
(4.11387 2.69094 5.97462e-18)
(4.34125 2.41867 -6.25513e-18)
(4.9857 2.14564 0)
(5.22341 2.55941 -1.2647e-18)
(3.80759 1.85888 -1.34656e-17)
(3.86438 1.82855 -1.73762e-17)
(3.74112 1.91742 1.17085e-17)
(3.67764 1.72839 -1.2268e-17)
(3.88189 1.60779 -9.41447e-18)
(3.68505 1.62834 1.14438e-17)
(5.05687 -0.0858249 -6.72632e-18)
(5.10027 -0.0558897 1.18835e-17)
(4.94628 0.116514 8.88702e-18)
(4.96289 0.190726 -9.60987e-18)
(4.79441 0.15273 0)
(4.88506 -0.0627376 -1.51724e-17)
(0.178263 6.3022 1.02495e-19)
(0.132979 6.16771 0)
(0.239855 6.33213 8.70188e-19)
(0.309454 6.35171 -6.19864e-19)
(0.197179 6.1931 -6.11319e-19)
(0.139093 6.05199 0)
(0.136192 6.18706 0)
(0.0242551 6.35751 1.13886e-19)
(-0.00445166 6.2777 -1.08658e-19)
(0.0248045 6.13723 -4.67983e-20)
(0.162985 6.19622 1.80025e-20)
(0.083256 6.16386 6.77977e-20)
(2.17653 5.36376 -5.90599e-18)
(2.06529 5.50971 6.50226e-18)
(1.98825 5.95849 -1.04341e-19)
(1.99621 5.72051 2.2819e-19)
(2.9618 5.9142 0)
(2.40296 6.28155 3.6709e-18)
(2.65022 6.12391 -3.45226e-18)
(2.22388 6.12568 1.02354e-19)
(2.53349 5.56984 0)
(2.63273 5.59693 0)
(1.37239 5.29089 7.81101e-18)
(1.37427 5.18651 1.16355e-17)
(1.48645 5.32473 -8.10356e-18)
(1.09652 5.32288 -1.57449e-18)
(1.19433 5.37886 2.40668e-18)
(0.836814 5.40552 -5.84194e-18)
(2.53422 4.92781 -7.50232e-18)
(2.76289 4.90368 0)
(2.63628 4.92011 -7.12463e-18)
(2.49072 4.93449 0)
(2.45694 4.9185 0)
(2.02372 5.21126 -4.88003e-18)
(2.37402 5.59725 -3.20742e-18)
(2.09615 5.67511 3.25202e-18)
(1.60671 3.45122 0)
(2.21588 3.69268 -4.58144e-18)
(2.27992 3.98068 -4.90631e-18)
(1.71892 4.89878 0)
(1.48863 5.29559 3.35384e-18)
(1.36366 5.02698 0)
(3.3152 3.26538 -1.25201e-17)
(3.61178 3.47494 1.76696e-17)
(3.59222 3.12037 -1.86814e-17)
(3.20208 3.12189 -1.69698e-18)
(3.39805 3.00099 -7.50207e-18)
(2.41032 5.48126 2.43792e-18)
(2.46991 5.32052 -5.39913e-18)
(2.17718 5.33757 7.88099e-18)
(2.49827 5.01432 -5.47354e-18)
(2.65718 5.09765 -5.28277e-18)
(2.68688 5.12792 -7.15048e-19)
(2.68355 5.13725 5.14112e-18)
(2.60613 5.08309 4.312e-19)
(2.61453 5.08372 2.3928e-18)
)
;

boundaryField
{
    wall-4
    {
        type            noSlip;
    }
    velocity-inlet-5
    {
        type            fixedValue;
        value           uniform (5 0 0);
    }
    velocity-inlet-6
    {
        type            fixedValue;
        value           uniform (0 5 0);
    }
    pressure-outlet-7
    {
        type            zeroGradient;
    }
    wall-8
    {
        type            noSlip;
    }
    frontAndBackPlanes
    {
        type            empty;
    }
}


// ************************************************************************* //
