/*--------------------------------*- C++ -*----------------------------------*\
| =========                 |                                                 |
| \\      /  F ield         | OpenFOAM: The Open Source CFD Toolbox           |
|  \\    /   O peration     | Version:  4.0                                   |
|   \\  /    A nd           | Web:      www.OpenFOAM.org                      |
|    \\/     M anipulation  |                                                 |
\*---------------------------------------------------------------------------*/
FoamFile
{
    version     2.0;
    format      ascii;
    class       volVectorField;
    location    "4";
    object      U;
}
// * * * * * * * * * * * * * * * * * * * * * * * * * * * * * * * * * * * * * //

dimensions      [0 1 -1 0 0 0 0];

internalField   nonuniform List<vector> 
918
(
(4.98419 -0.000771299 0)
(0.00530495 4.9657 0)
(-0.0119487 6.11491 0)
(4.97883 0.00167225 0)
(0.00558038 6.06128 -1.03323e-21)
(-0.0069868 4.94766 -3.3295e-17)
(4.25795 6.01778 1.01307e-17)
(2.7865 1.28936 -3.07598e-19)
(4.99992 -0.000103827 0)
(0.332557 5.27043 0)
(-0.0316048 5.32516 0)
(4.51637 -0.0283489 0)
(0.00962573 4.9305 0)
(-0.0353829 4.7968 0)
(-0.0935484 6.24117 -5.18008e-18)
(-0.0191237 5.97936 -9.54772e-20)
(3.45466 0.540985 2.024e-17)
(0.997087 6.40071 7.53055e-18)
(4.96248 0.00717549 0)
(-0.0201267 5.81697 0)
(1.46193 1.4618 -1.56923e-17)
(5.00212 -0.00446472 0)
(5.00012 -0.00896336 0)
(4.97474 -0.00676018 0)
(4.17269 0.065984 0)
(0.070672 4.25998 0)
(-0.0244492 4.91459 1.50031e-17)
(-0.0268803 6.13588 0)
(-0.0279193 6.27611 0)
(-0.0261957 6.13262 0)
(-0.00134947 6.34678 0)
(-0.00134322 6.07245 8.91944e-22)
(-0.00537015 5.96574 0)
(-0.0217927 4.98721 -1.28388e-21)
(-0.0170348 5.00555 2.53929e-17)
(0.00221905 5.0008 0)
(4.88945 -0.00766172 0)
(2.06532 3.09868 4.04099e-18)
(4.5834 5.91311 -1.37709e-17)
(5.22977 5.21032 1.62841e-17)
(3.68785 6.34191 -2.04106e-18)
(3.43693 6.49965 1.20144e-17)
(2.80373 1.46577 2.7083e-19)
(2.92274 1.18152 0)
(6.11177 3.12107 0)
(2.652 1.6539 1.42866e-18)
(2.514 1.52152 -1.33844e-18)
(4.92176 -0.00677293 0)
(5.00037 0.000161702 0)
(4.99987 0.000677292 0)
(5.00356 -0.00797843 0)
(5.00105 -0.000715523 0)
(5.00021 0.000161977 0)
(0.135134 5.86106 -4.59445e-18)
(0.110978 5.62809 0)
(0.52013 5.45438 0)
(0.0512332 5.53552 0)
(0.205775 5.16735 0)
(0.00573557 6.0578 0)
(-0.0637733 5.59725 0)
(0.00418806 5.25588 0)
(-0.085787 5.66122 0)
(-0.0460296 5.42805 0)
(4.9325 0.00718452 0)
(4.70225 0.0407845 0)
(4.58509 -0.0272824 0)
(4.65882 0.0426588 0)
(4.42852 0.0171425 0)
(0.014297 5.00014 1.29699e-17)
(0.011588 5.00512 0)
(0.00688633 5.00415 0)
(0.0131693 4.99699 1.54801e-22)
(0.0076675 4.95846 -1.89947e-17)
(0.0147955 4.98408 0)
(0.0091149 4.9049 0)
(0.0462879 4.89692 4.03718e-23)
(-0.0150327 4.8334 0)
(0.0773559 4.85296 0)
(-0.0526123 4.71158 0)
(0.882708 7.24035 0)
(-0.24003 7.53536 0)
(0.393107 6.39151 4.85832e-18)
(0.0660154 5.63741 0)
(-0.0272362 6.27744 0)
(-0.0170569 6.14899 9.41445e-20)
(-0.0171481 6.01255 -1.31593e-19)
(3.518 0.722691 -6.64251e-18)
(3.54853 0.39274 -6.29248e-18)
(3.46417 0.866649 -2.09386e-17)
(3.36378 0.874284 -1.39194e-17)
(0.95978 4.4184 0)
(1.38479 6.8425 -8.51402e-18)
(1.73473 6.81073 1.36312e-17)
(4.98692 0.0109458 0)
(4.94044 0.00723316 0)
(5.00028 0.000973978 0)
(5.0023 0.00972349 0)
(5.00293 0.0107105 -3.84823e-17)
(4.99139 0.00933045 2.71948e-17)
(-0.0523239 5.9672 0)
(-0.0401303 5.76068 0)
(-0.0335486 6.13325 0)
(-0.0372457 6.02355 0)
(-0.0137986 5.88421 0)
(1.87369 1.61548 4.69018e-18)
(1.96365 1.50188 0)
(4.99463 -0.00740565 0)
(4.95339 -0.00649386 0)
(4.54085 0.0630361 0)
(4.38733 0.0472885 0)
(4.33106 0.0312834 0)
(5.46 -0.0909658 0)
(4.16097 0.0998178 0)
(3.86351 0.150367 2.54313e-17)
(0.0110471 4.99844 1.49632e-17)
(0.131989 4.79365 0)
(0.209161 4.73327 0)
(-0.0679915 4.55453 0)
(-0.00484744 4.98486 1.50644e-17)
(-0.0287702 4.91095 0)
(-0.0129442 4.98898 -4.4951e-17)
(-0.0187206 4.92603 1.50273e-17)
(-0.0249064 6.34935 0)
(-0.0223986 6.33807 0)
(-0.0148437 6.12742 -1.83641e-21)
(-0.00719065 6.07663 0)
(-0.0144311 5.97383 0)
(4.94589 0.00469933 0)
(4.88251 -0.0114944 0)
(4.83778 0.0120874 0)
(4.95836 0.00307028 0)
(4.89864 -0.00167499 0)
(2.23676 4.05241 -5.03781e-18)
(2.19509 3.56335 0)
(2.04225 3.85503 6.183e-19)
(1.94153 2.79576 0)
(4.83975 5.32331 -3.96594e-18)
(5.42937 4.72994 7.7394e-18)
(2.11073 6.8983 0)
(2.896 6.72572 0)
(2.60616 6.79599 0)
(1.6567 2.68098 -3.86695e-18)
(2.95514 1.45541 0)
(3.05029 1.24084 3.5954e-18)
(5.54787 4.41833 0)
(5.68087 3.78957 0)
(6.00398 3.57447 -7.70462e-18)
(6.23251 2.86387 0)
(6.45933 2.18378 1.32059e-18)
(4.96264 7.2467e-05 0)
(4.96558 -0.00468106 0)
(4.90566 -0.00359987 0)
(4.98596 -0.00754356 0)
(4.97901 -0.00835859 0)
(4.93608 -0.00447095 0)
(5.00038 0.00314876 0)
(5.00095 0.00170936 0)
(4.99993 0.00110434 0)
(0.106069 5.89866 2.51865e-18)
(0.235232 5.64466 0)
(0.041888 6.05872 4.34955e-18)
(0.0668235 5.95992 -3.6357e-18)
(0.717669 6.29732 -6.2759e-18)
(0.184953 5.79732 0)
(0.516112 5.85647 0)
(0.0176999 5.48852 0)
(0.118402 5.1568 0)
(-0.00992793 6.19313 -8.66532e-21)
(-0.0040894 6.07805 0)
(-0.00180456 6.1955 -3.8636e-19)
(0.00782869 6.07795 7.15416e-19)
(-0.0211875 5.51643 0)
(-0.0415647 5.55107 0)
(0.0539314 5.18954 0)
(-0.0867536 5.74186 0)
(-0.0513174 5.54918 0)
(5.0286 0.0453684 0)
(4.99551 0.030399 0)
(4.97459 0.0309884 0)
(4.89142 -0.000768139 0)
(4.72259 -0.000762895 0)
(4.82523 0.0559161 0)
(4.7724 0.0453208 0)
(4.6502 -0.0175302 0)
(0.010417 5.06437 -1.48009e-19)
(0.00946266 5.06411 0)
(0.0170472 4.97111 0)
(0.00521637 4.87874 0)
(2.26828 8.45167 0)
(3.01582 7.35867 2.21424e-18)
(0.224993 5.77056 0)
(0.0486549 5.26057 0)
(-0.0333537 6.29999 0)
(-0.0379026 6.28053 0)
(-0.0312312 6.28908 0)
(-0.0174838 6.33224 1.27457e-20)
(-0.0323484 6.28599 0)
(-0.0136999 6.29032 0)
(-0.0126179 6.05475 1.70407e-20)
(-0.0173252 6.1982 1.94751e-19)
(-0.0186795 6.18138 1.34589e-19)
(-0.0168072 6.03532 0)
(3.60359 0.53375 1.02219e-17)
(3.59848 0.153919 -1.01391e-17)
(0.739018 4.68965 0)
(1.18224 4.02365 -2.57555e-18)
(0.584274 4.97263 -7.69452e-18)
(0.704698 4.77756 7.70223e-18)
(4.89495 0.00677058 0)
(4.96195 0.0168277 0)
(4.97172 0.0140019 0)
(4.91995 0.0065349 0)
(-0.0804988 5.82133 0)
(-0.0653962 5.89548 0)
(-0.0492499 5.64899 0)
(2.38046 1.70627 1.17896e-17)
(2.16052 1.74024 -1.58617e-17)
(2.35361 1.33091 0)
(5.93961 0.458939 2.85341e-19)
(6.00871 0.117833 0)
(5.53874 0.191861 0)
(5.20443 0.0276158 0)
(3.66959 0.393646 0)
(3.83956 0.274963 -4.04475e-17)
(3.69207 0.228243 1.55001e-17)
(0.052254 5.05219 1.40953e-17)
(-0.01706 4.94872 1.93589e-19)
(0.0106047 5.05434 -2.99476e-19)
(0.0121042 5.0488 1.09757e-17)
(-0.0151506 4.99881 4.79128e-19)
(-0.0126257 4.94889 -1.91307e-21)
(-0.0166396 5.01386 -8.44452e-18)
(0.0117383 5.02907 5.75563e-18)
(0.00698495 5.03373 -9.67811e-18)
(4.95153 0.0183233 0)
(4.94608 0.0105674 0)
(4.87927 -0.00917071 0)
(4.94737 0.0211111 0)
(4.92632 0.0274586 0)
(4.86789 0.0134326 0)
(4.87359 0.0467353 0)
(4.90352 0.0313899 0)
(4.79126 0.00974131 0)
(2.43784 4.35858 -4.32413e-18)
(2.25684 4.15045 0)
(1.76624 2.59683 1.1502e-18)
(1.74036 3.72638 8.94737e-18)
(1.88402 3.76405 -5.30319e-18)
(1.83475 2.65529 1.01947e-17)
(1.33866 3.82361 1.88552e-17)
(1.61793 2.85996 3.70889e-18)
(3.30272 1.16924 1.49377e-17)
(3.19657 1.1873 3.64239e-18)
(3.22332 0.920795 7.45737e-18)
(6.30151 2.17431 3.74251e-18)
(6.47089 1.60574 3.68729e-18)
(0.0226286 6.14581 1.70063e-18)
(0.0512523 6.04605 0)
(5.27126 0.107319 0)
(5.12376 0.0635395 0)
(5.07893 0.0220191 0)
(0.00752734 5.0788 0)
(0.0305438 4.9329 2.1417e-17)
(0.0219003 4.95549 0)
(-0.00308733 4.85451 -2.10793e-17)
(0.00823272 5.09188 4.57929e-18)
(0.0078797 5.07811 0)
(2.4722 4.68516 2.59188e-19)
(3.14211 5.90698 -8.96386e-19)
(2.35682 4.91317 -2.11393e-18)
(0.0958276 5.17121 -1.37976e-17)
(0.139304 5.38851 0)
(0.0473052 5.10022 0)
(-0.00121156 6.18731 -4.46394e-20)
(-0.0103424 6.20333 -4.51255e-19)
(-0.0029376 6.07175 -3.79156e-20)
(0.91605 4.39762 8.02355e-18)
(1.34283 3.71616 -5.62382e-18)
(0.219379 5.66356 4.44451e-18)
(0.389714 5.31917 -6.26884e-18)
(0.440774 5.25252 8.61732e-19)
(0.03364 5.12843 -3.53784e-17)
(0.0377686 5.12095 3.81863e-17)
(0.00821646 4.98454 1.51227e-17)
(0.0220882 5.00419 -1.5016e-17)
(-0.0179908 4.91957 -1.53993e-17)
(0.0199432 5.09284 -3.59557e-17)
(0.0111747 5.09935 3.94776e-17)
(1.45083 3.76239 0)
(1.60682 3.74399 -1.90401e-17)
(1.68943 2.60826 8.46098e-18)
(1.23233 3.90191 1.06482e-17)
(1.53229 3.09916 -1.66089e-17)
(6.35809 0.86414 1.23769e-19)
(6.46376 1.3192 0)
(6.46274 0.641813 1.29267e-18)
(-0.0242275 6.221 -1.12441e-20)
(-0.00520575 6.18748 0)
(0.00976469 6.07334 0)
(1.03898 4.17755 -2.9128e-18)
(1.14248 4.02722 -6.72144e-18)
(1.4398 3.39631 1.23498e-17)
(5.00776 -0.0109745 0)
(5.0083 -0.00663314 7.13404e-18)
(-0.0275115 6.32945 0)
(-0.0417568 6.34509 0)
(5.0022 0.00449662 9.4285e-21)
(5.00331 0.00857162 1.52895e-17)
(-0.015728 6.33623 -1.4409e-20)
(-0.0171345 6.344 0)
(0.286541 5.44578 1.25547e-17)
(1.13627 6.4835 0)
(5.1542 3.41706 -4.53456e-19)
(5.00852 0.0137525 -5.92169e-21)
(5.02701 -0.00720546 0)
(5.00168 0.00196518 3.07194e-21)
(0.228899 6.6301 0)
(0.253602 6.23237 0)
(-0.046416 6.42505 0)
(-0.0046965 6.39382 4.99215e-19)
(0.00444761 6.37514 2.29337e-19)
(4.93093 0.0828256 9.43971e-20)
(5.09491 0.0616229 0)
(5.21373 0.136709 0)
(-0.0388836 6.28145 0)
(-0.0263288 6.36089 0)
(-0.0617439 6.32246 0)
(0.993817 7.03569 -4.17154e-18)
(5.01233 -0.00786343 0)
(5.01291 -0.0162696 0)
(5.00294 0.00229209 9.04572e-18)
(5.00656 -0.00464955 -1.01706e-17)
(5.00113 -0.000673628 0)
(-0.0423249 6.27863 0)
(-0.0330336 6.31433 0)
(-0.0325866 6.29981 0)
(-0.0541166 6.32683 0)
(-0.0386411 6.31928 0)
(-0.0479301 6.32813 0)
(5.03402 -0.0149512 0)
(4.99713 0.0333118 8.95975e-21)
(3.44482 6.12074 7.26337e-18)
(5.00273 0.00240288 -8.57891e-18)
(5.00423 0.00552729 1.06049e-17)
(5.00123 0.00307079 0)
(5.00868 0.0139033 8.11979e-18)
(5.00558 0.0103329 -1.14591e-17)
(5.00776 0.0126783 0)
(-0.0250844 6.36221 0)
(-0.0210552 6.35234 5.74816e-20)
(-0.0222507 6.35646 -3.98782e-20)
(5.72974 1.29474 7.20128e-18)
(5.48839 0.419288 0)
(0.463589 4.92836 -2.3031e-17)
(0.268451 4.62915 -1.53339e-18)
(0.717503 5.41611 2.97736e-17)
(0.556434 5.57448 -8.74527e-18)
(0.61559 5.69598 0)
(0.146381 5.21513 5.73981e-18)
(0.38548 5.25804 2.29245e-17)
(0.378683 5.406 -1.06415e-17)
(0.167998 5.05417 0)
(3.315 1.77192 0)
(3.11594 1.95488 0)
(5.23059 3.51178 4.25138e-19)
(4.9599 4.19588 6.24192e-19)
(5.44853 2.81746 0)
(5.50938 2.81294 0)
(5.00994 0.016139 -1.59462e-17)
(5.00807 0.0154003 2.03205e-17)
(5.03211 -0.00558927 0)
(5.03001 -0.0141604 0)
(5.0069 0.00845668 0)
(5.00918 0.00857117 0)
(5.00318 0.00472199 0)
(5.00804 0.0107964 0)
(5.00606 0.00780785 0)
(5.0038 0.00764592 0)
(0.211853 6.6082 0)
(0.0743813 6.58405 0)
(0.340498 6.77815 0)
(0.278391 6.831 0)
(0.290255 6.21089 0)
(0.327502 6.2338 -2.76654e-18)
(0.213417 6.328 0)
(0.149428 6.3358 1.4303e-18)
(0.0812455 6.38773 -1.22795e-18)
(-0.0517487 6.42087 0)
(-0.0619396 6.40115 0)
(-0.0438281 6.43381 0)
(-0.0443766 6.4408 0)
(-0.0129035 6.33754 -1.79901e-19)
(-0.00547643 6.38334 2.78334e-19)
(-0.00596066 6.40103 3.85711e-19)
(0.0012343 6.39535 0)
(0.00115763 6.38099 -4.69075e-19)
(0.00155127 6.37577 -2.40512e-19)
(-0.00931969 6.33733 1.61102e-19)
(-0.0169057 6.36628 -3.93587e-19)
(-0.00847963 6.3775 -4.73047e-19)
(4.96858 0.108388 1.84593e-17)
(4.971 0.0658494 -2.24421e-17)
(4.93156 0.116957 -1.90404e-17)
(4.87211 0.0830082 2.35889e-17)
(5.08477 0.0704604 0)
(5.04946 0.00131237 0)
(5.195 0.175829 0)
(5.12196 0.100197 0)
(5.1303 0.0650267 0)
(5.4111 0.35346 0)
(5.268 0.220464 0)
(5.28339 0.178035 0)
(-0.0291757 6.32484 -6.31601e-21)
(-0.0404388 6.28442 0)
(-0.0351048 6.29531 0)
(-0.0235415 6.36506 5.67726e-20)
(-0.0190413 6.36751 -3.02045e-21)
(-0.0485548 6.27614 5.33404e-20)
(-0.0451085 6.28227 -5.76394e-20)
(-0.0519681 6.30305 0)
(-0.0420431 6.30408 0)
(-0.0430841 6.30401 0)
(-0.0596316 6.32631 0)
(-0.0692469 6.34596 0)
(1.57307 7.09389 6.36407e-18)
(1.55256 7.1409 2.89315e-18)
(1.26209 5.92748 -2.00406e-18)
(0.700749 6.01674 5.04176e-18)
(1.11549 5.90159 1.01394e-18)
(5.02681 -0.00358905 0)
(5.0173 -0.00937773 0)
(5.02488 -0.0129087 0)
(5.00878 0.00306327 0)
(5.00465 0.00173344 0)
(5.00674 -0.000339455 0)
(5.01142 -0.00251892 0)
(5.01476 -0.0013548 0)
(5.00147 0.0326586 1.62828e-17)
(5.00008 0.0205273 -1.98533e-17)
(4.9956 0.0397732 -1.60167e-17)
(4.98385 0.0356135 2.30505e-17)
(3.44349 6.23424 0)
(2.89774 6.64995 6.29816e-18)
(4.05565 5.73295 2.66705e-18)
(4.06696 5.7437 -3.5209e-18)
(3.12303 5.5315 1.57439e-17)
(4.17098 0.66168 1.07098e-17)
(5.5062 0.45737 0)
(5.6995 0.854228 -5.43268e-18)
(5.59164 0.781798 -2.1698e-19)
(4.77756 0.573276 0)
(0.924548 5.23369 1.54081e-17)
(0.785645 4.69228 -2.81432e-17)
(0.56978 3.3388 1.75132e-17)
(1.07747 1.6166 -7.77038e-18)
(0.966449 6.38103 5.98875e-18)
(0.654304 6.0276 0)
(0.73137 6.15552 -7.79526e-18)
(1.10175 5.424 -4.14205e-17)
(1.28323 5.81273 0)
(0.0602089 5.11779 9.90552e-19)
(0.0828755 5.12723 -1.01693e-17)
(0.0606625 5.1029 1.63236e-17)
(0.194253 5.15572 0)
(0.198838 5.21945 0)
(3.39508 5.67628 0)
(2.66082 4.05043 -8.657e-18)
(4.56257 5.04553 -1.24576e-18)
(4.63152 5.11976 0)
(4.06219 4.4648 -1.12071e-18)
(5.00171 4.33846 5.46944e-19)
(2.14814 2.24701 -2.00864e-17)
(3.48409 1.68662 -4.87453e-19)
(3.52161 1.61151 7.87031e-18)
(3.12005 2.144 6.40998e-19)
(2.82427 2.05202 -2.60852e-17)
(3.38482 1.83425 0)
(3.49753 2.10162 1.11305e-17)
(3.48046 2.09424 0)
(3.33499 2.02631 0)
(3.22429 1.80408 0)
(3.69487 2.92601 6.7607e-18)
(5.76658 1.36155 -5.93454e-18)
(5.68051 2.04185 0)
(5.66293 1.9884 0)
(3.81453 1.18608 1.20563e-17)
(3.91818 2.5265 -6.88853e-18)
(3.60498 2.37844 1.17838e-17)
(4.40822 2.05228 -1.31683e-17)
(5.00819 0.0250522 1.13538e-17)
(5.00949 0.018413 -1.12472e-17)
(5.00483 0.0137882 0)
(5.03677 -0.0166707 0)
(5.03531 -0.0117775 -1.04152e-17)
(5.03048 -0.0170314 1.0177e-17)
(5.03255 0.0265023 0)
(5.02148 0.0427653 0)
(5.01112 0.0118406 0)
(5.01067 0.0144043 0)
(5.01653 0.0134819 0)
(5.014 0.009177 0)
(0.0630767 6.57022 0)
(0.00651194 6.51484 0)
(0.510542 6.66141 1.15056e-18)
(0.945435 6.9832 2.04647e-18)
(0.452266 6.97611 4.41959e-18)
(0.53531 7.00919 -7.21965e-18)
(0.574548 6.71762 0)
(0.498838 6.23949 -3.12308e-19)
(0.457535 6.25607 0)
(1.00854 5.92326 -1.4899e-18)
(0.788599 5.94956 5.48341e-18)
(0.669685 6.29071 2.69817e-19)
(0.933239 6.58033 9.0055e-19)
(0.79093 6.61508 -7.45237e-19)
(1.20682 6.23974 -3.087e-19)
(0.879167 6.1204 0)
(0.951434 6.08208 5.22015e-19)
(0.0387009 6.34975 -2.74403e-19)
(0.0789426 6.36434 0)
(0.160547 6.28749 1.44898e-18)
(0.119227 6.31463 0)
(0.13166 6.35575 -1.56752e-18)
(0.0886933 6.37935 0)
(-0.00811089 6.35662 4.77284e-20)
(0.0168805 6.32482 0)
(-0.0093946 6.41093 0)
(-0.0274444 6.42252 -6.31706e-20)
(-0.00582069 6.39851 -2.31338e-20)
(0.0290652 6.41595 1.45245e-18)
(0.00748769 6.41315 8.47857e-21)
(-0.0136796 6.33306 9.64563e-20)
(-0.0113765 6.32631 7.31949e-20)
(-0.0648396 6.39272 0)
(-0.0756766 6.37021 0)
(0.0350015 6.25053 4.9691e-19)
(0.0576324 6.4019 2.07738e-19)
(0.0231326 6.31083 -3.42971e-19)
(0.102427 6.29036 0)
(-0.0340744 6.33113 -2.18954e-19)
(-0.0311576 6.35919 1.01741e-19)
(-0.0257542 6.34998 -3.6985e-20)
(-0.0136975 6.34078 -1.30214e-19)
(-0.0191471 6.36278 -4.87155e-20)
(-0.0154676 6.36796 3.16735e-19)
(4.98629 0.0561231 -1.2225e-17)
(4.9904 0.0718559 1.20467e-17)
(4.97641 0.0523951 0)
(4.90075 0.206608 1.76418e-17)
(4.86724 0.156848 -1.97095e-17)
(4.77659 0.134859 2.22606e-17)
(4.88419 0.385982 -2.35583e-18)
(5.03358 -0.0130595 0)
(5.04825 0.0137431 9.74824e-18)
(5.02861 -0.021305 -1.0901e-17)
(5.12135 0.181669 -6.36342e-19)
(5.11941 0.1377 5.67146e-18)
(5.12096 0.238373 0)
(5.07112 0.198788 -2.02668e-18)
(5.02983 0.133244 0)
(5.0006 0.100279 0)
(5.04317 0.0358919 0)
(5.02627 0.0428843 0)
(5.0644 0.120024 4.15991e-18)
(5.07368 0.0881528 -9.20997e-18)
(5.08338 0.143798 -4.3872e-18)
(5.07088 0.141314 -4.83752e-18)
(5.10496 0.256986 9.66318e-18)
(5.23606 0.229108 0)
(5.22395 0.439922 0)
(-0.0367507 6.33106 -9.65333e-20)
(-0.0439819 6.29674 -6.75478e-21)
(-0.0430995 6.29649 0)
(-0.0302705 6.34277 7.96899e-20)
(-0.0313142 6.33106 1.30655e-20)
(-0.0306237 6.34065 -1.54965e-20)
(-0.00564677 6.3748 2.20308e-19)
(-0.0211959 6.36259 -1.28179e-20)
(-0.020928 6.36027 5.39665e-20)
(-0.0163998 6.36977 -1.11228e-19)
(-0.0107248 6.37039 1.31789e-19)
(-0.0514492 6.28171 -1.73586e-21)
(-0.0501598 6.2829 7.336e-20)
(1.67311 6.50015 -3.24499e-18)
(1.33204 6.28114 -8.89619e-20)
(2.90424 6.77154 -6.03452e-18)
(2.2422 7.04561 -3.21019e-18)
(2.27774 7.04533 0)
(1.34758 5.87948 1.60493e-18)
(1.45489 5.96294 2.47714e-18)
(0.851993 5.96358 4.91572e-19)
(0.804601 5.89654 -5.79588e-18)
(1.05186 5.86345 4.502e-18)
(1.18044 5.97877 0)
(0.941252 6.02374 -3.73013e-18)
(0.438548 6.10705 7.08856e-18)
(0.64807 6.06323 -4.68576e-19)
(0.438356 6.15996 -1.00868e-17)
(2.38568 5.64621 1.14901e-17)
(2.06382 5.81989 0)
(5.01135 0.00482216 3.90949e-19)
(5.01759 -0.00107102 -2.88962e-19)
(5.01741 0.000194433 -5.00453e-18)
(5.0175 0.00503132 5.62214e-18)
(5.01531 0.00605971 0)
(3.04932 5.82845 0)
(3.12222 5.27186 0)
(3.61211 5.02688 0)
(3.10912 5.19515 0)
(3.09228 5.57137 -2.44186e-19)
(3.05368 5.55481 0)
(2.42717 5.20931 6.54428e-20)
(1.94581 5.59917 0)
(2.17554 5.47692 -6.55466e-18)
(2.24563 5.53261 4.24848e-18)
(4.15172 0.712269 0)
(4.04197 0.836188 3.13512e-18)
(4.53211 0.629376 1.61131e-17)
(4.27922 0.547226 -6.27004e-18)
(4.26682 0.451726 -1.88903e-17)
(5.0457 1.03023 -1.21645e-17)
(4.63318 1.28378 -3.38016e-19)
(4.36837 1.39018 1.49322e-17)
(4.71175 0.957417 1.22831e-17)
(4.53932 0.786321 -2.13352e-17)
(4.41505 0.852678 2.72784e-18)
(4.55306 1.22953 -5.79456e-18)
(4.4102 0.928133 0)
(4.72373 0.748987 1.06602e-17)
(4.89797 0.779441 0)
(4.88454 0.881163 0)
(5.25446 0.502155 4.1776e-18)
(4.97579 0.726139 -2.42949e-19)
(4.99021 1.05509 -2.37619e-18)
(5.17291 0.885549 0)
(4.97443 0.131996 9.19699e-18)
(5.03541 0.221098 1.18839e-17)
(5.00937 0.145848 -9.74122e-18)
(5.0111 0.228475 -7.83997e-18)
(4.92618 0.234682 -1.22681e-17)
(4.75725 0.57679 0)
(4.77385 0.352819 0)
(4.75359 0.212891 -7.86436e-18)
(4.60443 0.296832 2.9612e-18)
(4.95014 0.383803 1.12442e-17)
(5.02688 0.514489 -1.27523e-17)
(5.03379 0.663817 1.20576e-17)
(4.88499 0.570844 0)
(5.09299 0.45003 0)
(5.01124 0.385205 -5.23514e-18)
(5.00705 0.369006 -9.14771e-18)
(2.72695 4.95067 2.32153e-18)
(2.52157 5.05242 -2.83791e-18)
(2.81229 5.38133 -4.08571e-18)
(2.96569 5.87986 7.85165e-19)
(3.14694 5.69466 -9.81932e-18)
(3.36667 5.73672 4.40794e-18)
(3.43033 5.54613 -2.34243e-19)
(2.99836 5.83347 -3.84272e-18)
(2.9488 5.82269 6.5581e-18)
(3.02679 6.3063 9.6268e-19)
(3.42035 6.07536 -1.20392e-18)
(3.54492 6.05766 0)
(2.81511 4.12623 -6.96189e-19)
(1.66581 3.28262 8.39819e-18)
(2.09012 2.72911 1.29703e-17)
(1.49467 2.57759 1.55275e-17)
(2.80594 2.25632 1.44768e-17)
(2.88541 2.55129 -2.34032e-17)
(2.61318 2.66677 1.89267e-17)
(2.47539 2.45106 -7.58314e-18)
(2.52899 2.06423 1.70929e-17)
(3.80263 1.25871 -6.85987e-18)
(3.68171 1.53095 0)
(3.63102 1.40163 2.96907e-19)
(3.5627 2.48429 7.12801e-18)
(3.33496 2.3411 -2.44494e-17)
(3.06712 2.55518 7.00703e-19)
(3.29447 2.32542 0)
(3.25804 3.55256 5.93679e-18)
(3.81061 3.65919 6.25285e-18)
(3.49739 3.96899 -7.49176e-18)
(4.03296 3.84599 -2.30056e-18)
(4.35345 3.9599 -4.0411e-19)
(4.34604 4.03995 4.09675e-19)
(3.94869 3.10518 -1.10289e-17)
(4.32624 3.36071 2.12005e-18)
(4.65643 3.39775 0)
(4.67222 3.26675 -2.67664e-18)
(4.76916 1.57819 3.56097e-18)
(5.3837 1.41061 3.73144e-18)
(4.97251 1.21817 5.52067e-18)
(4.66312 1.69418 -7.10978e-18)
(4.90749 1.99481 0)
(5.16644 1.885 0)
(4.28787 1.73284 9.72177e-20)
(3.99334 1.40453 0)
(4.07469 1.32539 7.53838e-18)
(4.2391 1.42385 4.91252e-20)
(4.39953 2.07633 3.74818e-17)
(4.18382 2.32722 8.97884e-18)
(4.207 2.17701 -1.00855e-17)
(3.99056 2.08954 1.04888e-17)
(3.90927 2.06096 6.44918e-18)
(3.77299 1.98329 -6.71437e-18)
(5.03132 -0.00494882 8.52323e-18)
(5.02348 0.00303177 0)
(5.02138 0.00513319 5.91724e-18)
(5.0299 0.00300791 -1.38072e-17)
(5.02665 0.00840355 6.41129e-18)
(5.02074 0.0255163 -1.34374e-17)
(5.01722 0.0246539 0)
(5.01599 0.025409 -2.78366e-18)
(5.01555 0.0155858 7.10974e-18)
(5.01271 0.0191667 -3.41841e-18)
(5.01209 0.0179936 2.43767e-18)
(-0.0294923 6.45372 0)
(-0.00552874 6.44303 0)
(0.0101297 6.50741 0)
(-0.0279627 6.46327 0)
(0.196516 6.45325 -7.63883e-19)
(0.23638 6.51755 1.31802e-19)
(0.282337 6.31982 3.47418e-20)
(0.30936 6.49941 -9.58217e-19)
(0.0967536 6.42131 2.34059e-19)
(0.101949 6.43317 -2.04344e-19)
(0.179888 6.48986 -3.67817e-19)
(0.077178 6.54456 8.70249e-19)
(0.055414 6.50497 1.39576e-19)
(0.0237115 6.47185 5.69751e-20)
(0.190331 6.29985 -1.54932e-18)
(0.254921 6.27689 0)
(0.335144 6.18392 1.09863e-18)
(0.382871 6.25232 4.76227e-19)
(0.690216 6.09053 -7.29747e-19)
(0.517136 6.02638 0)
(0.531118 5.96303 -5.55766e-18)
(0.729465 5.968 3.97488e-18)
(0.612463 6.13367 -1.9612e-18)
(0.428197 6.16761 1.1653e-18)
(0.282546 6.09276 0)
(0.00951334 6.28794 -6.89688e-19)
(-0.0304316 6.35188 -1.06802e-18)
(-0.0159116 6.32579 0)
(0.000631858 6.37943 -4.54568e-20)
(0.0121156 6.35725 4.18588e-19)
(-0.0177023 6.3805 -7.68399e-21)
(-0.0350561 6.37257 -6.20102e-21)
(-0.0352809 6.34439 -6.0238e-20)
(-0.00879412 6.32608 7.48895e-20)
(0.00118704 6.35198 0)
(-0.0418474 6.32666 0)
(-0.0755429 6.34469 3.78505e-20)
(-0.0645216 6.30923 -1.30125e-20)
(-0.0641539 6.32609 0)
(-0.0780783 6.35956 1.92931e-20)
(-0.0783549 6.35604 -4.56083e-20)
(5.0526 0.0303781 0)
(5.05799 0.0283953 -9.53587e-19)
(5.086 0.0794415 -7.334e-18)
(5.08899 0.0819297 0)
(5.07677 0.0765011 0)
(5.0738 0.0347372 -9.40428e-20)
(5.0629 0.0338029 1.18799e-17)
(5.05983 0.0461579 1.33763e-17)
(5.02635 0.0552474 0)
(5.00964 0.0605517 0)
(5.05894 0.0852352 7.14714e-18)
(5.0189 0.0717889 0)
(5.00863 0.0671566 0)
(-0.0235643 6.33277 0)
(-0.0470185 6.28699 6.33325e-21)
(-0.0360075 6.30391 5.21165e-20)
(-0.0623874 6.31 0)
(-0.0480535 6.29709 4.54592e-20)
(-0.0531541 6.29199 -2.24637e-20)
(-0.0576897 6.29171 0)
(1.74896 5.6625 0)
(1.33921 6.00793 -4.28467e-19)
(1.24095 5.7777 0)
(1.86839 5.97704 -6.94223e-19)
(2.15885 6.50219 0)
(1.92688 6.41214 8.56892e-19)
(2.28379 5.66669 -2.04753e-19)
(2.40832 5.66218 -1.13279e-17)
(2.55098 5.64361 1.34379e-17)
(2.04761 5.79937 2.65189e-18)
(1.98136 5.62854 0)
(2.1575 5.51274 0)
(2.31692 5.72157 0)
(2.20512 5.83085 -9.64417e-18)
(1.58553 5.7351 -4.60184e-18)
(1.85319 5.56216 -1.15837e-18)
(1.94103 5.5858 7.76274e-19)
(1.62039 5.89241 0)
(1.94266 5.90377 0)
(1.73909 5.9429 -2.9024e-18)
(1.75663 5.74772 0)
(3.00816 4.86458 0)
(2.76319 4.53385 -6.5964e-18)
(2.76026 4.57697 -3.84407e-19)
(2.76121 4.81477 0)
(2.79995 4.73983 1.02796e-17)
(3.6337 4.11332 -1.73206e-18)
(3.72518 4.73484 0)
(3.6214 4.60448 2.0169e-18)
(3.21336 4.66458 0)
(3.17558 4.41229 0)
(2.83407 5.48409 -5.28877e-18)
(2.77785 5.44849 -2.9543e-18)
(2.59785 5.1827 4.91841e-18)
(2.58812 5.24568 -1.7223e-18)
(2.82878 5.60075 0)
(2.70354 5.55947 2.23347e-18)
(2.97872 5.5778 -3.39488e-18)
(2.8996 5.57542 -1.92934e-19)
(2.3959 5.22056 0)
(2.48341 5.16834 -2.03701e-18)
(2.62948 5.22765 0)
(4.16499 1.02816 0)
(4.02564 0.848525 0)
(3.8793 0.982721 0)
(4.12328 1.06317 -1.12849e-17)
(3.96196 1.0647 6.77356e-18)
(4.59751 0.287751 -5.19702e-18)
(4.62616 0.495529 0)
(4.5112 0.506837 3.15332e-18)
(4.37024 0.344831 1.06254e-17)
(4.41611 0.340022 -6.74724e-18)
(2.97811 6.59939 1.14425e-18)
(3.02083 6.35299 0)
(2.96762 6.55013 3.66384e-18)
(1.70373 6.77319 -3.82722e-18)
(2.35542 5.5216 -5.48924e-18)
(2.5935 4.22453 8.46195e-18)
(2.72876 4.42113 0)
(2.43971 3.54405 -2.66327e-18)
(2.48069 3.55335 1.36927e-17)
(2.16231 3.14882 -4.20814e-18)
(2.71252 2.91114 4.28658e-18)
(3.25232 2.71289 9.2595e-18)
(3.37305 2.74719 0)
(3.02449 3.26381 0)
(2.81353 2.97175 0)
(4.63249 2.78479 8.07018e-19)
(4.23483 2.54137 -9.03827e-18)
(4.40086 2.73884 5.83014e-18)
(4.56119 2.36194 -6.84893e-18)
(4.88361 2.23584 0)
(5.05451 2.65835 -1.45626e-18)
(4.09925 1.85791 -1.47442e-17)
(4.05727 1.75673 -1.96545e-17)
(3.84483 1.8622 1.20331e-17)
(3.7664 1.69863 -1.28855e-17)
(4.01382 1.52522 -9.80343e-18)
(3.84194 1.50941 1.19577e-17)
(5.03989 0.00846962 -6.60098e-18)
(5.03986 0.00675911 1.19271e-17)
(5.03202 -0.00564192 8.30868e-18)
(5.03966 -0.0116616 -1.06354e-17)
(5.048 0.0130081 0)
(5.05445 0.0223868 -1.80231e-17)
(0.1794 6.28724 1.48679e-19)
(0.146098 6.31023 0)
(0.272295 6.24402 1.06827e-18)
(0.304371 6.27639 -9.18006e-19)
(0.211621 6.29573 -6.62844e-20)
(0.174548 6.28879 0)
(-0.0133262 6.33173 0)
(-0.0349524 6.32734 -2.31604e-20)
(-0.0452049 6.3169 2.03278e-20)
(-0.0479892 6.30651 1.04918e-20)
(-0.0208166 6.3278 -4.66169e-20)
(-0.0178505 6.33419 3.88856e-20)
(2.22078 5.27164 -6.61477e-18)
(2.07945 5.36363 6.92547e-18)
(1.89927 5.84676 -6.87285e-19)
(1.97666 5.49573 2.43375e-19)
(2.98685 5.88952 0)
(2.49118 6.29857 3.19163e-18)
(2.66934 6.26752 -3.0793e-18)
(2.15374 5.95445 7.05752e-19)
(2.46798 5.53176 0)
(2.57151 5.55434 0)
(1.56663 5.68659 6.77532e-18)
(1.48965 5.7288 1.12377e-17)
(1.65851 5.7769 -7.82074e-18)
(1.35785 5.74117 -1.56923e-18)
(1.29383 5.86757 2.38477e-18)
(1.02204 5.81405 -6.10814e-18)
(2.63893 5.59205 -7.646e-18)
(2.78573 5.58981 0)
(2.71741 5.59545 -7.17614e-18)
(2.55617 5.56263 0)
(2.53706 5.53096 0)
(2.28011 5.08169 -5.68614e-18)
(2.61474 5.58756 -3.77469e-18)
(2.4164 5.656 3.73308e-18)
(1.74065 3.64717 0)
(2.21808 3.79451 -4.80627e-18)
(2.5211 4.11619 -5.29111e-18)
(1.98229 4.72574 0)
(1.74441 5.12112 4.22641e-18)
(1.73802 4.93238 0)
(3.28949 3.37762 -1.30276e-17)
(3.58889 3.22003 1.85139e-17)
(3.64788 3.08139 -1.9307e-17)
(3.23158 3.2273 -1.75454e-18)
(3.49999 2.98678 -7.52298e-18)
(2.60773 5.39354 3.02661e-18)
(2.59556 5.24428 -5.90986e-18)
(2.30546 5.13985 8.93547e-18)
(2.54182 4.84523 -6.12527e-18)
(2.64764 5.01567 -5.72262e-18)
(2.70465 5.07737 -6.90879e-19)
(2.6786 5.02269 5.71142e-18)
(2.57221 4.93185 4.80931e-19)
(2.59822 4.98448 2.61306e-18)
)
;

boundaryField
{
    wall-4
    {
        type            noSlip;
    }
    velocity-inlet-5
    {
        type            fixedValue;
        value           uniform (5 0 0);
    }
    velocity-inlet-6
    {
        type            fixedValue;
        value           uniform (0 5 0);
    }
    pressure-outlet-7
    {
        type            zeroGradient;
    }
    wall-8
    {
        type            noSlip;
    }
    frontAndBackPlanes
    {
        type            empty;
    }
}


// ************************************************************************* //
