/*--------------------------------*- C++ -*----------------------------------*\
| =========                 |                                                 |
| \\      /  F ield         | OpenFOAM: The Open Source CFD Toolbox           |
|  \\    /   O peration     | Version:  4.0                                   |
|   \\  /    A nd           | Web:      www.OpenFOAM.org                      |
|    \\/     M anipulation  |                                                 |
\*---------------------------------------------------------------------------*/
FoamFile
{
    version     2.0;
    format      ascii;
    class       surfaceScalarField;
    location    "10";
    object      phi;
}
// * * * * * * * * * * * * * * * * * * * * * * * * * * * * * * * * * * * * * //

dimensions      [0 3 -1 0 0 0 0];

internalField   nonuniform List<scalar> 
1300
(
18.7548
9.37738
-20.2108
18.7548
-22.9683
9.37738
-22.1978
22.1978
-6.68043
6.68043
9.37743
9.37734
-16.0839
16.0839
-14.5799
14.5799
-15.0505
15.0505
-8.78889
8.78889
-8.58415
8.58415
9.03893
-9.03893
-18.6443
18.6443
-9.65102
9.65102
-19.5981
19.5981
16.1552
-16.1552
-14.8466
14.8466
-2.81688
2.81688
-2.56427
21.319
16.1905
16.1905
-13.5469
13.5469
-7.9153
7.9153
10.44
-10.44
30.5534
-30.5534
-10.3426
-11.9902
5.04777
-30.4604
-17.9206
-17.9206
-14.0674
14.0674
-4.69002
4.68737
15.9853
-15.9853
-6.87449
6.87449
-22.5828
0.384978
-22.5828
21.9915
0.206358
21.9915
-7.43694
0.75651
-7.43694
20.8476
-20.8476
5.83085
0.849573
5.83085
16.0651
-16.0651
-9.37969
18.7571
9.37507
-9.37508
30.6941
-9.37969
18.757
-17.0285
17.0285
-16.818
0.734087
-16.818
15.4863
0.597647
15.4863
-19.4009
19.4009
-14.6446
0.0646929
-14.6446
14.5526
0.0273262
14.5526
16.1869
-16.1869
-15.2911
0.240516
-15.2911
14.7192
0.331336
14.7192
0.562235
8.81515
-9.93962
14.627
-8.81515
0.0262585
8.75185
0.0370416
8.75185
-8.64668
0.0625239
-8.64668
8.47284
0.11131
8.47284
9.69611
-0.657181
9.69611
-8.91911
-0.119821
-8.91911
-11.8197
-12.3683
-18.9198
0.275498
-18.9198
-9.93446
0.28344
-9.93446
9.30695
0.344072
9.30695
-12.1086
12.1086
-21.2046
1.60646
-21.2046
16.1091
0.0460726
16.1091
9.36917
9.38559
28.1239
-28.1239
11.9687
-14.7031
-0.143444
-14.7031
-15.1189
-15.4345
15.1189
-0.272273
-3.87179
1.05491
-3.87179
16.1531
0.0373523
16.1531
14.2872
0.432014
-14.2872
0.740324
18.0262
-18.0262
10.2863
3.26052
10.2863
-9.56677
9.56677
8.29298
0.179861
-8.29298
0.377685
10.3671
0.0728863
10.3671
-10.3864
-0.0535597
-10.3864
11.8212
-23.8114
-12.0574
18.3004
0.343913
-18.3004
0.379805
15.9965
-0.0112392
15.9965
-15.8449
15.8449
-16.0052
0.0198909
-16.0052
-7.04685
0.172363
-7.04685
6.85441
0.0200805
6.85441
-22.0193
-0.563476
-22.0193
-21.6072
0.402584
21.6072
0.38428
7.98816
-7.98816
-8.14203
0.705094
-8.14203
-21.485
-0.534337
21.485
-0.637367
-20.9064
0.0588172
-20.9064
-16.0341
0.0289375
16.0341
0.0310315
16.1083
0.0448718
-16.1083
0.0431295
-9.37156
18.7572
-9.38321
18.7583
-15.9939
-1.03461
-15.9939
17.8289
-0.80037
17.8289
18.0458
1.55238
-18.0458
1.22776
15.0618
0.424502
15.0618
-19.2314
-0.169479
-19.2314
19.4642
-0.0632847
19.4642
14.7933
0.268448
-14.7933
0.148717
14.5657
-0.0131177
14.5657
16.3542
-0.167212
16.3542
-16.0668
-0.120156
-16.0668
15.628
-15.628
15.4808
0.147164
-15.4808
0.18975
-18.4056
18.3521
-0.0343971
-18.3712
8.71745
8.71745
9.42741
0.268705
9.42741
-8.9493
0.0301861
-8.9493
11.6573
-23.7147
12.1019
-23.9216
12.6032
-43.0636
12.194
-24.5623
19.3208
-19.3208
19.1453
0.175501
-19.1453
0.225545
-10.1898
0.255307
-10.1898
-11.1671
-0.941506
-11.1671
13.2904
-1.18178
13.2904
-15.993
15.993
-16.055
0.0619589
16.055
0.0541548
14.6134
-0.0477088
-14.6134
-0.0897391
4.84333
0.987523
-4.84333
0.971538
19.0896
-1.06335
19.0896
-17.1389
-0.887332
-17.1389
-10.1624
-0.027382
10.1624
0.123958
-9.90414
0.337368
-9.90414
-18.5416
0.170396
-18.5046
-10.216
-10.216
3.85135
18.4783
-16.0159
-0.0509286
16.0159
-0.0193424
15.9224
0.0706529
-15.9224
0.0775027
-15.7551
0.127114
15.7551
0.0897956
-7.26361
0.216758
-7.26361
-7.20922
7.20922
-6.97592
-0.233301
6.97592
-0.121507
8.47738
-0.48922
8.47738
8.7828
0.52415
-8.7828
0.640771
-20.42
-0.486397
-20.42
18.4618
-0.632837
18.4618
-16.6389
-0.499964
16.6389
-0.284745
-0.0321282
18.3842
-8.68532
0.0386461
8.68532
-18.4571
18.4957
-8.06553
0.80192
8.06553
1.36188
9.24147
0.325302
-9.24147
0.292176
19.4392
0.0249957
-19.4392
0.118341
-10.3406
-0.826535
-10.3406
-14.6558
-1.33816
14.6558
-1.36534
-18.8626
-0.269961
19.1326
-18.7513
10.1741
0.193017
-10.1741
18.6888
-7.54619
-0.441968
7.54619
-0.336973
9.07267
-0.595295
9.07267
20.1207
-1.03114
-20.1207
-0.299342
-18.9176
-0.313842
18.9176
-0.45581
-9.6621
-0.678508
9.6621
-0.589425
-21.286
21.3233
9.40816
-11.6592
-12.1523
-27.0937
9.35404
9.40311
21.3228
-26.6957
-16.3679
-26.3159
12.2663
-11.9741
-17.1339
16.4767
37.2392
-37.1804
-28.6743
28.7284
31.8185
-31.7875
9.38841
9.36872
38.3217
-37.5876
-39.2975
38.2629
36.1266
-36.0619
41.073
-41.2424
-47.2475
47.2725
-28.0403
28.2808
-32.5345
32.4143
-33.3531
33.0684
-11.6244
-12.2972
34.465
-34.1895
41.4888
-41.6323
-40.5081
42.1146
16.8607
4.4626
16.9056
-9.37968
18.7681
-9.37734
18.7855
12.0544
-23.6788
11.6603
-23.8125
21.4635
20.0253
-21.1912
-5.9025
-28.9792
28.968
-28.6021
28.6919
42.9492
-42.5642
-9.39029
18.759
-9.36798
18.7711
-16.8919
-11.7824
16.8458
4.47696
21.2056
13.2594
-21.5495
-4.76642
-37.7021
36.6709
-39.1098
38.2224
-1.21733
9.59598
-8.37865
6.69796
-2.06494
11.6609
10.2014
10.2315
9.6772
-9.3519
2.29692
-10.6756
-10.2979
-12.7356
13.4407
12.6526
-11.803
28.9024
8.3368
28.265
-26.7983
-10.382
-27.2847
18.9407
9.78771
19.0027
20.1125
11.706
20.1415
15.0701
-15.1012
0.0311222
-15.1235
30.1935
3.65783
-26.9059
-22.4289
24.3015
14.0202
24.8992
-26.4194
-11.1682
-25.1917
-23.4406
-15.8569
-24.7788
25.2957
12.9672
24.4953
-30.4684
30.0125
23.795
12.3316
23.8223
-23.9064
-12.1555
-23.7577
38.0193
-9.99793
-28.0214
-26.6704
-20.5771
26.7337
14.3393
28.8083
18.4642
28.9267
13.257
24.7624
-27.5962
7.01916
-18.8359
-9.20447
-18.6461
18.2036
10.0772
18.535
-20.3726
-12.1619
-20.4235
-20.6075
-12.7456
20.7747
11.6396
-21.0836
-18.0262
21.5836
11.4848
11.3897
-27.7577
13.1726
-25.4698
-24.0514
-10.1382
-23.8258
14.7052
9.4204
-24.1256
-8.97358
38.6886
-18.6633
32.7861
-25.761
-15.8712
-25.8508
-32.0958
-8.41237
-31.6932
-21.258
20.4315
-21.9661
20.7843
37.2518
-20.6935
-16.5583
-19.5219
-12.2656
19.4787
-2.57315
-18.443
18.4742
0.325057
19.1106
23.5732
21
-18.9934
-9.60868
-18.9159
18.8287
9.86313
18.9558
31.9544
10.9948
32.1607
-30.8276
-11.7366
-31.3911
19.547
-19.3747
14.4758
-14.5032
25.3875
12.8349
-24.3241
-13.3779
29.3447
-14.6764
-14.6683
-19.98
19.0943
0.885725
-8.31906
-1.62109
1.19579
-9.79954
-7.33434
9.91936
0.312176
19.4064
12.0721
-9.09006
9.42743
10.0425
10.2223
-0.0755318
12.4516
-11.6496
26.6286
-12.6628
-13.9658
25.7901
-26.3245
-5.60098
-26.4766
20.8756
1.94054
8.07765
-7.02274
-10.2369
-2.49876
-9.59611
7.49403
5.15857
8.48155
4.95621
8.48452
-14.2286
2.56199
11.6666
-9.27242
-9.24103
-17.7981
-5.04425
22.8424
26.509
10.1619
-26.2096
-1.07506
13.5889
-13.2448
-3.91432
-13.8838
10.1202
-14.0345
-16.8724
-9.54335
26.4158
-16.5043
-2.41158
16.4337
2.56904
-18.6664
-10.3128
18.6465
1.49498
-15.2281
30.2744
-15.0462
-24.8368
12.6065
17.5871
22.3942
-23.6863
12.0684
11.6179
-6.09924
20.733
4.16618
21.1575
-33.1236
21.9554
27.4552
14.6594
-29.0076
3.81593
-29.3077
33.9293
-30.0177
-3.91158
17.0514
16.8779
19.1927
18.0591
-13.9027
33.0954
-4.98847
-25.0292
34.2961
-19.6368
20.969
-40.6057
-39.0281
13.9988
-25.2354
31.5825
-6.34703
-9.50433
-20.964
34.7398
-2.89848
-31.8413
21.5969
-18.8823
-19.4656
38.348
-28.8803
31.6211
-9.01842
-22.6027
-25.7467
-15.4958
26.0605
3.95201
-36.0102
43.0294
-11.2478
20.7035
3.11875
20.6904
13.4897
-21.4723
7.98265
15.3906
-24.409
8.45231
-29.9246
-18.2821
35.314
-17.0319
-28.4202
-25.4454
-2.97481
7.59025
35.4391
-26.0544
20.1691
5.8853
16.2776
2.67829
-16.4247
-2.22139
1.61476
21.7204
-23.3351
20.1497
20.5817
16.1393
5.58107
18.7697
10.1983
-18.7503
-1.67317
-20.0109
7.26523
-8.37126
-17.5353
24.8005
-19.576
2.04073
-13.0504
-17.1078
30.1582
-22.2549
14.9696
15.3048
24.8327
-23.798
6.69019
-11.738
-12.06
12.8858
-21.2571
9.44059
15.3599
20.9254
2.89925
17.811
17.503
-27.2314
1.76165
30.7624
-25.996
6.39661
22.53
-26.5657
1.12029
-22.7055
3.98241
-22.6457
-20.1432
23.3565
-31.7689
-17.2492
29.1233
3.03745
-29.5076
-2.18559
-14.8146
-6.44341
-15.4932
-6.86208
-15.104
-20.7648
-4.38599
-16.3788
16.0455
-16.3707
-8.40803
17.7361
3.04824
-17.5372
17.0953
-17.8463
17.251
0.522866
17.9513
21.5229
9.25724
-11.852
21.1093
-23.037
34.0318
-40.1747
17.1378
20.1016
-31.8382
-20.0732
12.016
7.53103
12.0361
21.292
-23.7638
2.47177
-23.1279
27.8081
-4.68019
-36.0772
12.9493
-14.7852
13.0686
1.40721
13.3239
3.20614
11.6663
-14.8724
-11.297
-11.1731
-11.2808
-16.4921
27.7729
5.47512
-16.2917
10.8166
-16.5958
22.071
-0.621037
-15.6707
25.1374
-13.4711
26.5446
-17.2169
9.32774
15.8736
26.9514
-11.0778
21.0264
-8.19142
8.84366
-19.9215
-7.64843
-14.5044
24.5816
-15.6538
17.6946
-1.24645
18.941
-19.2544
4.578
-3.11505
17.4667
18.207
20.4377
-14.8567
14.1521
-22.3435
-5.76941
-19.4443
-4.08433
-0.158674
-18.4348
18.5935
17.904
-18.0626
-9.18674
19.3069
-10.1202
15.8931
-9.85178
-6.04131
-9.49954
-9.87512
9.28279
3.16878
19.0619
1.38417
-11.236
-10.2655
-8.90359
15.4412
11.1874
-8.6202
9.50593
7.42441
0.653234
2.97787
5.50368
9.0164
-6.03853
0.547518
8.46888
-6.47522
9.7592
3.82969
-10.2834
0.687246
-6.75673
16.8769
4.90991
-10.0685
4.02995
4.68747
-17.3503
23.7823
-12.6394
-11.1428
28.4697
5.53502
-18.1745
20.9416
-19.001
11.5109
-16.5552
-6.66353
-25.6646
-17.3278
-11.8581
22.6747
-15.9147
26.0767
5.80231
-25.0016
30.8039
-17.4431
7.89975
-14.3181
18.1478
-4.62785
-9.69024
13.3915
13.0243
-14.3206
0.436807
-0.929077
11.0625
-11.9915
-2.97208
-12.2445
-22.4956
23.9906
-10.3197
22.3881
10.7896
-9.3327
31.7208
8.9837
-18.3164
-15.8531
-18.2647
-6.69852
15.6957
-3.08302
-20.6747
-25.6857
20.4062
0.751236
-33.1365
36.725
-3.5885
-19.1163
-2.83906
19.8904
-26.6108
2.20183
-18.1585
18.5665
22.7327
23.4839
-31.0272
-0.814082
-18.06
3.90588
-21.9659
20.7838
-9.69163
23.6905
-26.452
18.0439
-23.4037
19.7789
-2.18704
20.2803
-12.2977
7.74106
-23.2368
-19.2848
24.9101
-12.5784
28.0288
-14.5217
42.5505
-25.7695
24.6327
17.9178
-4.96646
-20.8843
-24.3911
19.4246
0.241573
20.932
24.2163
-14.018
22.5431
10.8759
-22.6139
-10.3812
-31.6392
9.02529
-16.3344
-9.24885
18.2741
15.5839
18.2621
6.21415
-16.0408
24.2209
-27.1957
-7.1889
-12.9543
24.0557
-4.63102
14.4612
-27.4156
-8.18443
17.9956
-1.30509
-16.6905
2.69789
-19.9471
8.18531
-28.1324
23.5836
-25.7692
5.04432
-19.8295
-12.4929
-12.8299
-5.19136
-12.6549
-16.9004
11.709
-3.95112
13.1441
-19.5844
18.2793
-8.2237
19.9327
-13.2798
-2.2133
13.8693
3.38171
23.3145
2.28189
-22.355
-10.5933
20.1997
-9.60644
4.84792
-16.1529
4.04684
11.6371
16.8326
-32.5128
0.674538
-21.6805
-9.04103
16.5721
10.2659
28.1699
4.40606
18.209
-1.63695
22.6151
10.3991
10.2776
-14.4148
16.8865
4.17868
21.3165
-4.27835
13.6061
9.04554
9.32898
3.91584
11.194
7.01298
15.772
0.899583
-10.2735
8.07225
-16.9758
-3.1637
-16.7071
-0.230429
10.275
-10.5054
16.1405
-4.95307
6.53401
-0.179158
-10.2333
10.4125
-14.1449
-9.58008
-1.1112
-7.64454
11.6745
9.2324
-10.5633
-3.58162
1.60364
-18.9314
14.9515
-14.5147
-1.49049
29.3134
-13.1489
1.15736
-5.24913
-11.0871
-13.5859
12.8987
30.2574
1.4634
15.2112
25.454
15.1412
1.12321
15.0477
-21.3947
-14.8769
-22.2088
-1.42502
18.4654
7.23498
28.2041
25.1528
20.5218
-6.89377
-34.0894
26.6901
-9.80355
22.0099
-5.31941
-22.813
22.9126
11.1192
-25.9501
0.180927
-22.6321
-32.4356
-1.11722
19.3965
-22.1972
19.9839
13.5405
2.83823
-10.5393
-2.29057
10.7726
-0.494987
22.1201
-1.20196
-16.532
17.734
-9.07303
5.90932
1.12665
8.37928
11.5391
6.58605
-9.94595
-20.4514
-9.46059
-7.88972
-20.6034
2.23894
-11.4713
12.5453
-6.63597
6.50398
11.098
17.632
-3.59116
-14.4715
13.7114
-7.20737
10.4246
)
;

boundaryField
{
    wall-4
    {
        type            calculated;
        value           uniform 0;
    }
    velocity-inlet-5
    {
        type            calculated;
        value           uniform -18.7548;
    }
    velocity-inlet-6
    {
        type            calculated;
        value           uniform -9.37738;
    }
    pressure-outlet-7
    {
        type            calculated;
        value           nonuniform List<scalar> 8(20.2108 22.9683 22.3328 25.4127 24.1881 23.8786 23.7592 24.7972);
    }
    wall-8
    {
        type            calculated;
        value           uniform 0;
    }
    frontAndBackPlanes
    {
        type            empty;
        value           nonuniform 0();
    }
}


// ************************************************************************* //
