/*--------------------------------*- C++ -*----------------------------------*\
| =========                 |                                                 |
| \\      /  F ield         | OpenFOAM: The Open Source CFD Toolbox           |
|  \\    /   O peration     | Version:  4.0                                   |
|   \\  /    A nd           | Web:      www.OpenFOAM.org                      |
|    \\/     M anipulation  |                                                 |
\*---------------------------------------------------------------------------*/
FoamFile
{
    version     2.0;
    format      ascii;
    class       surfaceScalarField;
    location    "3";
    object      phi;
}
// * * * * * * * * * * * * * * * * * * * * * * * * * * * * * * * * * * * * * //

dimensions      [0 3 -1 0 0 0 0];

internalField   nonuniform List<scalar> 
1300
(
18.7548
9.37738
-23.1708
18.7548
-23.0166
9.37738
-22.6996
22.6996
-8.19564
8.19564
9.37776
9.37701
-18.487
18.487
-18.9194
18.9194
-15.1165
15.1165
-8.78963
8.78963
-8.57645
8.57645
9.19334
-9.19334
-18.7507
18.7507
-10.6923
10.6923
-20.8341
20.8341
16.1686
-16.1686
-19.6792
19.6792
-3.98255
3.98255
-2.56454
21.3193
16.1902
16.1902
-13.8986
13.8986
-7.87518
7.87518
10.4436
-10.4436
34.8479
-34.8479
-11.6771
-11.921
4.90654
-28.6603
-18.11
-18.11
-14.0672
14.0672
-4.68985
4.68753
15.9139
-15.9139
-6.88284
6.88284
-23.0376
0.338019
-23.0376
22.6071
0.0924632
22.6071
-8.87567
0.680036
-8.87567
21.0306
-21.0306
7.37551
0.820127
7.37551
16.0809
-16.0809
-9.3798
18.7576
9.37497
-9.37504
30.6943
-9.37973
18.7567
-17.9672
17.9672
-18.9071
0.420035
-18.9071
18.3011
0.185922
18.3011
-19.7515
19.7515
-18.6575
-0.261871
-18.6575
19.1583
-0.238954
19.1583
16.2642
-16.2642
-15.2769
0.160382
-15.2769
14.8687
0.247793
14.8687
0.561388
8.816
-9.93877
14.6263
-8.816
0.0263626
8.75461
0.0350239
8.75461
-8.6395
0.0630513
-8.6395
8.47883
0.0976149
8.47883
9.87987
-0.686525
9.87987
-9.06787
-0.125478
-9.06787
-11.7763
-11.5532
-19.0163
0.265557
-19.0163
-10.9077
0.215399
-10.9077
10.3224
0.369912
10.3224
-13.7668
13.7668
-22.1454
1.31131
-22.1454
16.1243
0.0443469
16.1243
9.3675
9.38726
28.1223
-28.1223
11.9536
-19.6202
-0.0589596
-19.6202
-19.7411
-15.1068
19.7411
-0.0619059
-5.26822
1.28567
-5.26822
16.1521
0.0381664
16.1521
14.5501
0.318625
-14.5501
0.651437
18.1094
-18.1094
10.6153
3.28327
10.6153
-9.59977
9.59977
8.30434
0.174491
-8.30434
0.42916
10.3736
0.0700099
10.3736
-10.3903
-0.0532927
-10.3903
11.8674
-23.7884
-11.8742
18.4493
0.301417
-18.4493
0.339278
15.9257
-0.0117889
15.9257
-15.7392
15.7392
-15.9686
0.0547433
-15.9686
-7.09507
0.212227
-7.09507
6.79141
0.0914291
6.79141
-22.4032
-0.634419
-22.4032
-22.5348
0.389351
22.5348
0.0723269
7.95341
-7.95341
-9.43708
0.561401
-9.43708
-21.7034
-0.699785
21.7034
-0.67276
-21.0568
0.0261983
-21.0568
-16.0354
0.0667518
16.0354
0.0454727
16.1175
0.034608
-16.1175
0.0366002
-9.37139
18.7587
-9.38338
18.7583
-17.1328
-0.834429
-17.1328
18.4898
-0.522593
18.4898
19.7362
1.0979
-19.7362
0.829123
18.2582
0.0428809
18.2582
-19.5969
-0.154584
-19.5969
19.755
-0.00351192
19.755
18.376
-0.117721
-18.376
-0.28156
19.3699
-0.211602
19.3699
16.4784
-0.214252
16.4784
-16.1042
-0.159985
-16.1042
15.4423
-15.4423
15.3802
0.0621086
-15.3802
0.103329
-18.3981
18.3448
-0.0334786
-18.3646
8.72113
8.72113
9.60448
0.275392
9.60448
-9.04417
-0.0236953
-9.04417
11.8029
-23.6771
11.6222
-23.3985
11.678
-40.3384
11.8343
-23.3874
19.4987
-19.4987
19.2834
0.215356
-19.2834
0.267071
-10.9253
0.0176037
-10.9253
-12.7994
-0.967385
-12.7994
14.8452
-1.07834
14.8452
-15.9913
15.9913
-16.0604
0.0690588
16.0604
0.0638763
19.5253
-0.155316
-19.5253
-0.0949828
6.37949
0.996018
-6.37949
1.11127
19.1594
-1.04994
19.1594
-17.2616
-0.847782
-17.2616
-10.7171
-0.208174
10.7171
-0.101754
-9.91972
0.319956
-9.91972
-18.5386
0.174008
-18.5036
-10.2163
-10.2163
3.85094
18.4772
-15.9874
-0.116801
15.9874
-0.0617289
15.9026
0.0887782
-15.9026
0.16331
-15.5568
0.114526
15.5568
0.182435
-7.33955
0.244476
-7.33955
-6.97778
6.97778
-6.8038
-0.173982
6.8038
-0.0123859
8.8119
-0.858492
8.8119
9.97115
0.351207
-9.97115
0.534078
-20.4794
-0.577413
-20.4794
18.8495
-0.359724
18.8495
-16.7702
-0.491417
16.7702
-0.291777
-0.0356854
18.3805
-8.68545
0.045948
8.68545
-18.4505
18.4965
-8.17652
0.836969
8.17651
1.42796
9.30188
0.297884
-9.30188
0.257713
19.6555
0.099507
-19.6555
0.156805
-11.7139
-1.08552
-11.7139
-15.9727
-1.16005
15.9727
-1.12756
-18.8398
-0.271218
19.111
-18.7421
10.1909
0.182645
-10.1909
18.6791
-7.34711
-0.606304
7.34711
-0.369326
9.68857
-0.876664
9.68857
20.1457
-0.986314
-20.1457
-0.33372
-19.2557
-0.341222
19.2557
-0.406184
-10.6922
-1.02169
10.6922
-1.00367
-21.2873
21.3255
9.40706
-11.8568
-11.9315
-26.9636
9.35484
9.40382
21.3085
-24.8346
-15.5038
-24.4953
12.3447
-12.0869
-17.5549
16.8684
36.4336
-36.4074
-28.6477
28.7116
31.7426
-31.6972
9.39673
9.36083
38.3563
-37.9363
-36.9439
36.1095
36.1491
-36.4109
37.8239
-37.9785
-43.7115
43.811
-28.2722
28.4326
-32.4006
32.2406
-33.2089
32.9171
-11.7156
-11.6829
31.9555
-31.69
41.4434
-41.5024
-40.8621
42.1734
16.8662
4.45923
16.9008
-9.37995
18.7767
-9.37678
18.7838
11.8533
-23.5689
11.8238
-23.7553
21.3532
20.0903
-21.2913
-5.67235
-28.695
28.6832
-28.6489
28.8314
42.7787
-42.4407
-9.39034
18.7512
-9.36801
18.7718
-16.8761
-11.7716
16.8318
4.47672
19.6696
12.2859
-19.971
-4.52427
-37.2398
36.2535
-38.821
37.9732
-1.37429
9.61982
-8.24553
6.50089
-2.00066
11.6205
10.344
10.3203
9.68387
-9.38599
2.40307
-10.6486
-10.2194
-13.5374
14.0988
13.5109
-12.6908
28.5422
7.89138
27.8694
-26.4057
-10.0017
-26.9831
18.9137
9.79792
18.9827
19.946
11.7966
20.0128
15.0809
-15.1012
0.0203273
-15.1269
30.2078
3.64993
-26.8985
-22.4218
24.8528
13.5035
25.0387
-26.4057
-11.5306
-25.5766
-22.0984
-14.8455
-23.2584
23.5412
12.5683
23.0186
-28.1983
27.7921
24.1439
12.0051
23.905
-24.0489
-12.362
-24.3305
37.0864
-9.7173
-27.3691
-24.4581
-19.2534
24.4616
13.3623
26.6152
17.1958
26.7721
12.6988
24.3876
-26.0611
6.80771
-18.9158
-9.35638
-18.8125
18.4421
9.99052
18.6899
-20.2591
-12.1415
-20.3759
-20.5751
-12.6338
20.7894
11.4512
-21.1519
-17.669
21.6434
11.2738
10.547
-26.0508
12.8405
-24.5233
-22.29
-9.39997
-22.0229
14.4599
9.23954
-23.6995
-9.10895
38.5366
-18.4464
32.8643
-25.8435
-15.6589
-25.9385
-32.0979
-8.76421
-31.7085
-20.3074
19.2219
-20.6844
19.606
36.6872
-20.1343
-16.553
-19.5176
-12.1796
19.481
-2.58014
-18.4603
18.4806
0.316402
19.1002
23.5595
20.9793
-19.0057
-9.64327
-18.8424
18.9542
9.87714
19.0688
31.9316
10.8471
32.0241
-30.8267
-11.614
-31.4611
20.0542
-19.842
14.5538
-14.762
25.2389
12.7343
-24.1889
-13.0508
29.5473
-14.8465
-14.7007
-20.3585
19.6902
0.668347
-8.73806
-2.23716
1.74539
-9.96715
-7.58777
10.0926
0.227672
19.9179
12.3301
-9.08849
9.40845
10.0225
10.197
-0.0224609
12.8169
-11.98
26.1711
-11.8959
-14.2752
25.5194
-26.2192
-5.9417
-25.9122
19.9705
1.65022
8.8654
-7.57973
-10.5799
-2.95746
-10.0458
8.15838
5.35256
9.1544
4.85963
9.23913
-14.6869
2.77164
11.9153
-9.82728
-9.91917
-17.3862
-4.62371
22.0099
26.2558
9.99766
-25.9221
-1.06102
13.7185
-13.3486
-3.98247
-13.4037
9.74195
-13.7244
-16.8539
-8.88353
25.7375
-16.474
-2.36833
16.3852
2.59749
-18.4529
-10.2421
18.3982
1.61464
-15.3111
30.517
-15.2058
-24.9544
12.6284
17.5794
22.4263
-23.7491
12.0576
11.6914
-6.16968
21.4774
3.56135
21.5203
-32.9256
21.395
27.9268
14.2467
-29.0247
3.44805
-29.4775
33.7129
-29.4885
-4.22442
17.4147
16.2982
18.6078
18.0794
-13.3046
31.9124
-4.48361
-25.0049
33.9611
-19.7145
20.3826
-40.0971
-38.462
13.4572
-24.5912
30.2626
-5.67147
-8.67548
-19.5228
33.2666
-3.13601
-30.1306
19.8826
-18.892
-18.9254
37.8174
-28.6093
31.2875
-9.158
-22.1295
-23.5935
-14.385
23.9348
3.85737
-35.113
41.9207
-10.7254
21.0129
2.89208
20.8013
13.5922
-21.2263
7.63404
15.0171
-24.1751
8.79556
-30.0218
-17.1715
33.5729
-16.4015
-26.5714
-23.7739
-2.79752
7.21669
34.704
-24.4124
18.8094
5.60301
16.4354
2.63339
-16.4975
-2.31503
1.82076
21.831
-23.6517
20.5106
20.8293
16.5551
5.27591
18.6516
10.0316
-18.5898
-1.78604
-19.7221
7.08826
-8.27084
-17.3612
24.4494
-19.5071
2.14599
-12.9961
-17.2102
30.2063
-22.3525
15.0925
15.4245
24.9696
-23.8398
6.62961
-11.8251
-12.0147
12.8775
-21.1484
9.26722
15.1822
20.541
2.87198
17.0271
16.5459
-26.2666
1.74328
28.8318
-24.3075
5.95541
20.8166
-24.7648
0.99092
-21.032
3.9175
-22.3639
-19.782
22.5929
-31.3571
-17.5042
29.2146
2.80946
-29.287
-2.42156
-13.9352
-6.37215
-14.9569
-6.50088
-14.1835
-19.8055
-4.071
-15.7345
15.1509
-15.4612
-7.79719
16.5888
3.01722
-17.8201
17.2138
-17.686
16.8093
0.505307
17.9753
21.4846
9.30504
-11.8056
21.1107
-22.6381
33.4852
-39.1447
16.5067
19.4045
-31.0186
-19.7402
12.2529
7.80129
12.3444
21.5081
-24.1777
2.6696
-23.482
27.6248
-4.14288
-36.702
13.2201
-15.194
13.2984
1.25542
13.316
3.39578
11.6088
-15.0046
-11.3662
-11.4679
-11.1004
-16.0322
27.1326
5.71159
-16.1606
10.449
-16.7241
22.4357
-0.470691
-15.6899
25.3374
-13.7286
26.5928
-17.1948
9.39804
15.8186
26.7903
-10.9716
20.5512
-7.81691
8.53187
-19.5035
-7.50037
-14.6546
24.6451
-15.5517
17.6977
-0.993377
18.6911
-19.6313
4.78472
-3.07618
17.7531
18.4045
20.167
-14.8911
14.0373
-21.8542
-5.46623
-18.9822
-3.80002
-0.383405
-18.0024
18.3858
17.7379
-18.1213
-9.56863
19.8639
-10.2953
16.3492
-10.1839
-6.16536
-9.74241
-10.0996
9.49793
3.31901
19.6682
1.40984
-11.5937
-10.5701
-9.14217
15.3695
10.8016
-9.67925
10.3476
7.93386
0.931536
3.14828
6.00612
9.2969
-6.14862
0.462339
8.83456
-7.11739
10.1222
3.59635
-10.4734
0.427555
-6.91313
16.6551
5.00214
-10.3547
4.20607
4.91323
-16.8092
22.7906
-11.6498
-11.1408
27.7038
5.69605
-17.3458
20.2161
-18.5659
11.2001
-15.8239
-6.14566
-24.7116
-16.8202
-11.7827
22.2316
-15.35
25.3476
5.37771
-24.2866
29.6643
-17.2137
8.33012
-14.8028
18.3992
-5.22206
-9.58078
13.1261
12.6114
-13.7738
0.37008
-0.647701
11.0121
-11.6598
-2.71236
-12.5396
-22.3554
23.9701
-10.5518
22.6095
10.5588
-9.3925
32.002
9.02019
-18.4127
-15.9342
-18.3025
-6.72127
15.7051
-3.38473
-20.9457
-25.5142
21.0635
0.456798
-32.7746
36.8756
-4.10097
-19.271
-2.12396
19.5387
-26.5832
2.40814
-17.7876
19.0879
22.6493
23.1061
-29.8496
-0.280979
-17.2813
4.23836
-21.5197
20.5365
-9.67705
23.1342
-25.2526
17.4554
-22.2354
18.9098
-2.6099
19.8138
-12.1798
7.55523
-21.9402
-18.0828
24.6704
-12.6653
27.5625
-14.4268
41.9892
-25.1522
24.4633
17.5259
-4.93938
-20.9991
-24.1102
19.1708
0.353165
21.1545
24.1615
-14.1299
22.3754
10.9144
-22.7395
-10.2339
-31.8187
9.07923
-16.3943
-9.25478
18.334
15.7148
18.3482
6.31932
-16.0332
23.5021
-26.2996
-7.10063
-12.6813
23.7863
-4.6155
14.2365
-26.9178
-8.12743
18.0236
-1.70334
-16.3203
2.11065
-19.6148
8.34557
-27.9604
23.0115
-25.4331
5.14056
-20.3345
-12.6796
-13.0489
-5.27081
-12.4152
-17.1602
11.8894
-3.94013
13.2737
-19.6908
17.9874
-7.93405
19.8235
-12.6624
-2.29455
13.666
3.1433
22.9668
2.0874
-21.8276
-10.1976
19.7592
-9.56154
5.17187
-15.915
3.84424
11.5094
16.1944
-31.4799
0.461356
-21.3662
-9.21525
17.0165
10.6486
28.3865
4.20887
18.7885
-1.77194
22.9974
10.5724
10.5601
-14.0201
16.6897
4.36565
20.8723
-4.14366
13.5417
9.1723
9.3877
3.96092
11.2581
7.14644
16.0428
1.03822
-10.4297
8.31509
-17.4573
-3.27861
-17.1819
-0.313479
10.6614
-10.9749
15.9961
-5.19449
6.43455
0.223884
-10.6359
10.412
-14.0513
-9.70437
-0.869804
-7.45774
11.6638
9.19734
-10.794
-3.2573
1.45692
-18.2771
14.3669
-13.9969
-1.3855
28.2788
-13.2825
1.62274
-4.95238
-10.9169
-13.8744
13.4468
30.5675
1.43443
15.3617
25.4045
15.1624
1.03256
15.5813
-21.2528
-14.4405
-21.5337
-0.997209
18.5415
7.20998
27.494
24.7359
20.1204
-6.79741
-33.097
26.0709
-9.38115
21.928
-5.60772
-22.3527
22.5715
10.9137
-25.3809
-0.0521828
-22.4049
-31.786
-1.24584
19.2333
-21.7209
19.4264
13.0542
2.68031
-10.7997
-2.24916
10.9737
-0.413659
22.5837
-1.24098
-16.9203
18.1613
-9.42045
6.14184
1.45485
8.89275
11.8669
6.67238
-10.2479
-21.2228
-8.91021
-7.89894
-20.051
1.95891
-11.1562
12.9406
-6.79876
6.77524
11.3625
17.7971
-3.74658
-14.3747
14.0418
-7.2666
10.5305
)
;

boundaryField
{
    wall-4
    {
        type            calculated;
        value           uniform 0;
    }
    velocity-inlet-5
    {
        type            calculated;
        value           uniform -18.7548;
    }
    velocity-inlet-6
    {
        type            calculated;
        value           uniform -9.37738;
    }
    pressure-outlet-7
    {
        type            calculated;
        value           nonuniform List<scalar> 8(23.1708 23.0166 23.5981 23.7538 23.3295 23.7416 23.425 23.5123);
    }
    wall-8
    {
        type            calculated;
        value           uniform 0;
    }
    frontAndBackPlanes
    {
        type            empty;
        value           nonuniform 0();
    }
}


// ************************************************************************* //
