/*--------------------------------*- C++ -*----------------------------------*\
| =========                 |                                                 |
| \\      /  F ield         | OpenFOAM: The Open Source CFD Toolbox           |
|  \\    /   O peration     | Version:  4.0                                   |
|   \\  /    A nd           | Web:      www.OpenFOAM.org                      |
|    \\/     M anipulation  |                                                 |
\*---------------------------------------------------------------------------*/
FoamFile
{
    version     2.0;
    format      ascii;
    class       volScalarField;
    location    "5";
    object      p;
}
// * * * * * * * * * * * * * * * * * * * * * * * * * * * * * * * * * * * * * //

dimensions      [0 2 -2 0 0 0 0];

internalField   nonuniform List<scalar> 
918
(
7.83174
16.3019
0.0764526
7.84937
0.00219762
16.2537
-14.1403
14.1523
7.73876
-2.48866
-0.343926
8.42331
16.0122
15.7315
4.97743
0.0472905
12.9304
-10.3105
7.75016
-0.026209
16.4904
7.77016
7.78128
7.7301
10.1175
16.7074
15.8123
0.0329427
-0.0100391
-0.0758948
0.0166943
0.005781
0.0140714
16.0572
16.1442
16.1813
7.47149
6.38941
-11.1941
-12.8265
-10.5257
-14.3965
13.8227
14.0582
-7.57108
14.2227
14.6686
7.6428
7.73803
7.74464
7.74494
7.73894
7.74684
2.86285
-2.77621
-3.59881
-1.92287
-1.71645
0.502904
-0.407216
-0.546878
-0.227481
-0.189502
6.80871
8.28187
8.16183
8.57492
8.80653
16.2012
16.1556
16.1986
16.0543
16.0829
15.9743
15.928
15.7154
15.7335
15.7407
15.8531
2.61789
-2.70311
7.9895
9.52436
0.00413604
0.0733422
0.10587
12.4932
12.7505
12.8737
13.2359
7.77245
-9.84892
-13.5022
7.75597
7.75211
7.78253
7.78922
7.7644
7.76408
-0.0347972
-0.00668638
-0.127692
-0.0265521
-0.0406415
15.9571
15.8077
7.72684
7.71061
9.04096
9.68291
9.36455
3.24799
10.4319
11.1908
14.6309
15.9398
16.2639
16.1397
15.7617
15.6732
15.8802
15.916
0.0876284
0.0178742
0.0431284
0.0208159
0.0349005
7.43185
7.36995
7.76445
7.50746
7.53267
5.78895
4.88061
6.91105
7.34177
-8.88213
-10.973
-11.2754
-11.2855
-14.6237
8.62066
13.5835
13.6754
-7.34352
-5.35929
-8.81964
-4.89967
-6.46645
7.57033
7.62071
7.58979
7.69353
7.66286
7.67584
7.76695
7.74827
7.75819
3.17143
4.10897
2.26131
2.05923
-6.5589
-3.8892
-6.20752
-1.32779
-1.15981
0.602884
0.751476
0.4376
0.397495
-0.899864
-0.626418
-0.835581
-0.12261
-0.105492
6.65742
6.44028
6.96766
7.0689
7.88446
7.9367
8.07261
8.01092
15.8576
15.8796
15.8939
15.8524
-8.35953
-22.337
11.4174
12.28
0.0147988
0.0146231
0.00679062
0.0223604
0.0122441
0.00605568
0.187093
0.156023
0.120489
0.147379
12.2868
12.2296
7.61865
8.19863
7.06243
7.00019
7.72754
7.72654
7.74218
7.72857
-0.0613711
-0.0150205
-0.0437805
14.6542
15.3079
15.1285
2.36019
0.140972
4.34913
4.93171
11.9086
11.4742
11.9895
14.9915
15.1516
15.9166
15.9542
15.9535
15.972
16.0471
16.0776
16.0151
7.15956
7.31961
7.23893
7.73275
7.74819
7.74119
7.82365
7.77424
7.78559
4.24926
2.99045
8.27079
7.97069
7.5584
7.90412
8.42167
8.74008
12.9825
13.3282
13.4623
-3.43003
-4.8123
1.73374
1.51148
5.56984
6.2309
5.87721
15.8111
15.7528
15.8188
15.7836
15.7425
15.77
3.11533
-3.9966
-0.409636
14.3373
13.2212
13.7688
0.309757
0.202839
0.227322
8.01151
8.5282
4.47033
5.97595
5.63756
15.4513
15.5934
15.6111
15.3602
15.4756
15.687
15.6851
8.39558
8.22324
8.5295
8.46571
8.6477
-0.674609
-2.51329
-3.12283
0.857418
1.22727
1.06669
8.33667
8.42477
8.66496
7.71893
7.72559
0.0726623
0.139064
7.76034
7.76106
0.033025
0.0361841
13.482
6.08445
0.36458
7.72567
7.60624
7.73156
-2.01459
2.6251
-0.279309
0.564793
0.278636
8.24115
7.03135
6.36744
0.0337406
0.0903764
-0.00656933
-5.20131
7.70619
7.69152
7.72665
7.72503
7.73293
0.0401182
0.0481587
0.0356377
0.0375974
0.0419068
0.0147299
7.43108
7.78013
-4.40917
7.73188
7.7469
7.74292
7.728
7.74943
7.74618
0.0663214
0.0466453
0.0549635
2.20475
4.7783
15.5547
16.8653
14.5905
13.2042
11.7361
14.5744
15.1942
14.2944
15.6685
12.9903
13.4628
1.57732
-1.47141
1.79769
0.414517
7.71505
7.71664
7.59313
7.57745
7.70736
7.70285
7.72259
7.71733
7.73309
7.73455
-1.20709
-1.52695
-2.28523
-3.17987
2.8102
3.81944
2.02582
2.01885
1.11981
-0.20417
-0.170319
-0.288339
-0.462812
0.242876
0.282278
0.444973
0.436658
0.229
0.183442
0.170597
0.234442
0.283961
8.07147
8.0344
8.25682
8.45518
7.17104
7.19102
6.68636
7.01823
6.76157
5.56898
6.3322
5.82731
0.0250757
0.0345793
0.0246123
0.100858
0.117845
0.0221876
0.0309352
0.0467131
0.0495718
0.0441388
-0.0053143
-0.0101136
-4.59492
-6.49386
7.21752
6.1686
2.6857
7.63315
7.67843
7.65575
7.70148
7.71552
7.71349
7.69871
7.68125
7.75163
7.73979
7.77471
7.82038
-2.94604
-5.93489
-2.75489
-4.28982
6.26494
11.4134
5.07635
3.94666
3.62566
8.59459
13.6841
15.0431
17.1383
16.785
8.27517
10.5634
8.95787
11.0941
9.79279
15.179
15.5371
15.7559
15.5144
15.0683
4.43833
8.86785
-3.19687
-2.36387
1.30699
-0.765936
15.1588
12.5377
12.8581
13.3464
14.0436
12.9745
12.4168
12.4303
13.0128
13.3125
8.34733
3.06476
2.26923
1.18717
12.2761
9.37381
10.6857
8.72267
7.72279
7.71492
7.72205
7.48876
7.55902
7.51651
7.65648
7.70498
7.69395
7.70705
7.66668
7.67547
-1.19751
-1.11265
-1.62081
-3.26557
-3.26239
-4.24294
-2.38547
0.486774
0.169315
2.53086
3.59703
-0.205587
-1.95685
-1.7267
-0.406192
1.15609
1.27023
0.676105
1.30444
1.38799
1.10632
1.73586
1.67599
-0.0707001
0.0938229
-0.210911
-0.171997
0.569115
0.799167
0.789237
0.161248
0.142332
-0.145555
-0.0930798
0.278941
-0.0430436
0.20009
0.0376221
0.0730621
0.0997414
0.104389
0.0872475
0.165585
0.163241
7.84947
7.94124
7.91025
8.41695
8.57676
8.92583
8.36568
7.40929
7.31934
7.34867
7.00414
7.16333
7.11161
7.39409
7.78268
7.88743
7.65687
7.7129
7.59624
7.57733
7.35337
7.4499
7.0176
6.68962
6.47469
0.0437732
0.0317709
0.0327381
0.0247238
0.0269992
0.0307519
0.182426
0.138398
0.163649
0.137311
0.140119
0.0352728
0.0318914
-2.34406
-0.574097
-5.17162
-5.47784
-7.10283
6.96632
7.93746
5.95887
4.79754
5.04806
6.39547
6.90152
4.11151
5.20286
5.27757
8.1136
7.8954
7.6799
7.6717
7.65362
7.65643
7.67089
-1.21063
0.7338
0.215767
1.56186
6.41217
6.96894
4.13021
4.38445
5.25255
5.07114
11.3364
11.8014
10.2701
10.9187
11.007
6.72112
8.60594
9.80948
8.75243
9.80323
10.4297
9.38494
10.2449
8.77158
7.89473
7.84779
6.40695
7.20284
6.69367
6.13301
8.07088
7.64385
7.82468
7.73091
8.13383
9.03368
8.86537
9.19658
9.61521
7.91434
7.01318
7.36063
7.89634
6.94633
7.2112
7.59189
3.92774
4.6619
5.17706
4.397
5.63357
4.94532
5.05224
4.56488
5.20559
3.43048
3.53496
1.38979
7.49107
13.8126
14.7762
15.2785
14.1309
13.6007
13.7458
14.518
14.6236
11.9775
12.4764
12.4474
11.3613
12.1361
12.78
12.7721
8.13363
6.14005
6.07275
4.89831
1.87555
2.80278
7.02621
5.46529
3.74559
3.69791
7.63268
4.8521
6.38591
7.70881
6.40467
4.93034
9.88538
11.3392
11.1284
10.5044
8.37229
8.71835
9.19509
10.072
10.8084
11.6639
7.57035
7.64256
7.63397
7.60243
7.62937
7.6674
7.69289
7.70626
7.68057
7.70483
7.71089
-0.483679
-0.399747
-0.828054
-0.689461
-0.237052
-0.574191
-0.336723
-0.632191
-0.346708
-0.289262
-0.487406
-0.881934
-0.797159
-0.556586
1.22173
1.55293
1.41649
0.71963
2.20065
3.33339
3.87254
3.15882
1.81363
2.14836
2.55085
0.415457
0.50379
0.406848
0.580362
0.525762
-0.15623
-0.136288
-0.0539432
0.0355941
-0.072056
-0.0159049
-0.0239752
-0.0260822
-0.0278812
-0.0527517
-0.0449565
7.45095
7.38716
7.49495
7.38835
7.3396
7.57778
7.60395
7.6646
7.71953
7.7991
7.67706
7.79434
7.84224
0.0800269
0.0429269
0.0678259
-0.0106386
0.0247128
0.019341
-0.00872998
2.6116
0.571722
1.67453
-0.0223257
-3.2157
-1.83078
6.14011
7.57658
8.01925
7.44206
6.30644
6.52607
7.70434
8.0795
4.09506
5.31511
4.57064
7.45775
7.30938
8.0661
5.58108
3.38034
5.66756
6.11758
4.17048
5.05417
4.72649
2.42388
2.99626
3.81831
5.29793
5.64011
5.14391
4.77221
4.64038
5.86035
5.54429
6.80466
7.47297
3.4352
3.05708
1.90482
11.1661
11.5889
11.9208
11.3966
11.9117
9.82295
9.72819
10.175
10.4448
10.0727
2.93649
3.33384
2.27312
6.06473
6.97231
7.90812
6.76127
11.8853
10.7707
13.3313
13.0901
11.8083
10.8271
10.8269
11.9466
5.0026
7.62108
6.82077
7.29264
5.51275
3.74446
10.4368
10.4247
11.2235
11.7827
11.0975
11.8237
7.6003
7.61384
7.5604
7.52526
7.52072
7.57512
0.453407
0.112033
0.627839
0.33183
-0.0315441
-0.0324392
0.0439272
0.0157903
0.0160355
0.0353119
0.0825937
0.112034
3.12149
3.26967
0.757619
2.06915
-1.01761
-2.10279
-2.89515
0.0335704
1.60729
1.10155
4.45693
5.8232
4.88444
5.54099
4.2811
4.82273
7.56967
7.22142
7.88888
6.26589
6.38169
6.63353
4.28184
5.61025
11.5349
10.9038
9.08883
8.31134
8.41108
10.1456
8.67475
7.65916
8.52314
9.74301
9.67958
4.92897
4.94699
5.79697
6.38224
4.89475
5.32067
4.98745
5.72746
5.26546
)
;

boundaryField
{
    wall-4
    {
        type            zeroGradient;
    }
    velocity-inlet-5
    {
        type            zeroGradient;
    }
    velocity-inlet-6
    {
        type            zeroGradient;
    }
    pressure-outlet-7
    {
        type            fixedValue;
        value           uniform 0;
    }
    wall-8
    {
        type            zeroGradient;
    }
    frontAndBackPlanes
    {
        type            empty;
    }
}


// ************************************************************************* //
