/*--------------------------------*- C++ -*----------------------------------*\
| =========                 |                                                 |
| \\      /  F ield         | OpenFOAM: The Open Source CFD Toolbox           |
|  \\    /   O peration     | Version:  4.0                                   |
|   \\  /    A nd           | Web:      www.OpenFOAM.org                      |
|    \\/     M anipulation  |                                                 |
\*---------------------------------------------------------------------------*/
FoamFile
{
    version     2.0;
    format      ascii;
    class       volScalarField;
    location    "7";
    object      p;
}
// * * * * * * * * * * * * * * * * * * * * * * * * * * * * * * * * * * * * * //

dimensions      [0 2 -2 0 0 0 0];

internalField   nonuniform List<scalar> 
918
(
7.93238
15.937
0.131453
7.95144
-0.00508568
15.8893
-14.1966
14.3774
7.84196
-2.53049
-0.565891
8.52878
15.6486
15.3559
5.01382
0.0303868
12.965
-10.0807
7.85557
-0.186328
16.2532
7.87072
7.88217
7.83274
10.2941
16.2894
15.4473
0.0259448
0.0036831
-0.143502
0.0107769
-0.0178811
-0.0214219
15.6929
15.7798
15.8166
7.57309
6.47212
-11.2907
-12.9322
-10.6624
-14.3454
13.939
13.9776
-7.66448
14.2083
14.5917
7.74708
7.84108
7.84736
7.84416
7.84257
7.84845
2.83636
-2.7866
-3.5637
-1.99604
-1.77699
0.442142
-0.625877
-0.7446
-0.456942
-0.426434
6.88822
8.39531
8.29159
8.66928
8.91358
15.8363
15.7903
15.8331
15.6906
15.7185
15.6109
15.5643
15.3428
15.3634
15.3651
15.4701
2.72447
-2.41555
7.9509
9.41623
0.0039347
0.0344863
0.0473754
12.6121
12.8556
12.9207
13.3282
7.75748
-9.70603
-13.2676
7.86187
7.85709
7.88509
7.8913
7.86709
7.86615
-0.17812
-0.19957
-0.318649
-0.190572
-0.246607
15.8516
15.6274
7.82886
7.81282
9.16529
9.84739
9.50386
3.24263
10.6053
11.3476
14.3033
15.5527
15.8625
15.7424
15.3969
15.3079
15.5152
15.5512
0.199248
0.0454987
-0.00227305
-0.023086
-0.0188969
7.53012
7.46065
7.8677
7.61057
7.637
5.84954
4.94536
7.02655
7.4873
-9.19083
-11.1915
-11.1701
-11.2636
-14.4532
8.81311
13.6253
13.8308
-7.49414
-5.42358
-8.94008
-4.99841
-6.5466
7.67028
7.72604
7.69249
7.79834
7.76467
7.77876
7.87013
7.85126
7.86166
3.17482
4.04161
2.26731
2.03695
-6.48039
-3.84905
-6.15209
-1.41107
-1.27214
0.522369
0.685726
0.34154
0.262296
-1.02292
-0.770655
-0.950954
-0.349856
-0.327799
6.73767
6.49991
7.05412
7.15994
7.97836
8.03148
8.18409
8.11035
15.4915
15.5167
15.5302
15.4875
-7.88076
-21.4518
11.2554
12.0669
0.00378335
0.00942297
0.00766009
0.0275411
0.00243738
0.00270442
0.108138
0.0710612
0.0480068
0.0766302
12.3418
12.4144
7.64829
8.25291
7.03371
6.9207
7.82762
7.82771
7.84506
7.83022
-0.270509
-0.212124
-0.261272
14.728
15.1614
15.1819
2.35525
0.135437
4.35948
4.94548
12.0988
11.6213
12.1521
14.6471
14.8043
15.5547
15.5912
15.5899
15.6086
15.6829
15.7129
15.6508
7.25963
7.40935
7.32914
7.83319
7.85289
7.84318
7.92503
7.88194
7.89585
4.3608
3.18076
8.4568
8.13065
7.69613
8.06428
8.59835
8.93229
13.0642
13.3586
13.3289
-3.46093
-4.77982
1.704
1.47333
5.59331
6.26933
5.91239
15.4429
15.3861
15.453
15.4178
15.3733
15.4026
3.30592
-3.63154
-0.161806
14.0229
12.964
13.4839
0.164878
0.0957227
0.132157
8.12376
8.6712
4.49952
5.92592
5.58739
15.0956
15.2306
15.2448
15.0052
15.115
15.3152
15.3141
8.56831
8.39607
8.72826
8.65261
8.87264
-0.675038
-2.54377
-3.08931
0.797653
1.1926
1.04083
8.48196
8.57687
8.81006
7.81772
7.82482
0.085043
0.159601
7.86368
7.86441
0.00775409
-0.00587015
13.2027
6.11332
0.330181
7.8275
7.71243
7.83469
-2.0716
2.51561
-0.523619
0.419193
0.152235
8.36464
7.10882
6.41199
0.0075161
0.0281559
-0.151984
-5.20232
7.80504
7.79348
7.82992
7.82945
7.83754
-0.0049882
0.00510804
0.0076464
-0.11494
-0.0680001
-0.128877
7.53383
7.88144
-4.65191
7.83528
7.85023
7.84594
7.83214
7.85463
7.85161
0.0427288
-0.0023996
0.00256628
2.1409
4.80868
15.2004
16.446
14.2958
12.9488
11.5686
14.2444
14.8482
13.9786
15.2956
13.0824
13.5695
1.53556
-1.51677
1.81857
0.409023
7.81453
7.81819
7.69905
7.67204
7.8105
7.80479
7.82602
7.82203
7.83866
7.83917
-1.30124
-1.66771
-2.33316
-3.22405
2.74382
3.88647
1.83461
1.91596
1.02128
-0.435346
-0.402779
-0.471558
-0.609247
0.0724864
0.136773
0.355922
0.329029
0.16057
0.0791002
-0.0239842
0.107503
0.168149
8.19809
8.14995
8.38143
8.57204
7.25283
7.29237
6.7548
7.10096
6.85546
5.61193
6.38278
5.86206
-0.00480138
-0.00237498
0.000218637
0.0273044
0.0485214
-0.0405436
-0.030147
-0.0708563
-0.0543424
-0.0285481
-0.158249
-0.196072
-4.58633
-6.4881
7.31807
6.20428
2.78147
7.73928
7.778
7.75725
7.80419
7.81868
7.81721
7.8011
7.78199
7.84997
7.84237
7.8774
7.91453
-3.083
-6.08227
-2.69994
-4.6253
6.38741
11.6054
5.11404
3.95042
3.63283
8.72514
13.5752
14.7703
16.7398
16.4876
8.27869
10.4859
8.92268
11.079
9.82169
14.8269
15.1743
15.3819
15.1484
14.7209
4.6227
9.05513
-3.33305
-2.50081
1.26379
-0.800164
15.1579
12.646
12.8474
13.5296
14.1729
12.9607
12.4681
12.4658
13.059
13.3037
8.45927
3.0151
2.24572
1.13622
12.2632
9.51269
10.8436
8.9238
7.82654
7.81848
7.82345
7.59159
7.65432
7.61171
7.76108
7.80514
7.79297
7.80587
7.77031
7.77594
-1.29699
-1.21979
-1.743
-3.28288
-3.3101
-4.25012
-2.51043
0.538487
0.168074
2.56501
3.63331
-0.192775
-1.94437
-1.79309
-0.351685
1.15503
1.25956
0.538783
1.2003
1.33879
1.02229
1.62219
1.56717
-0.201306
-0.0682067
-0.343072
-0.288315
0.427307
0.686425
0.67026
0.0268452
-0.0103922
-0.352846
-0.315689
0.0925786
-0.185912
0.0378789
-0.0946084
-0.0047544
0.019776
0.032914
-0.0298033
0.053518
0.0673103
7.94385
8.04277
8.00681
8.51616
8.71824
9.07455
8.49532
7.51576
7.41213
7.44457
7.09915
7.25586
7.22842
7.48962
7.87002
7.99841
7.76175
7.82496
7.68464
7.67204
7.4495
7.54842
7.11596
6.75254
6.53977
-0.0135565
-0.0150944
-0.014958
-0.029044
-0.00347127
-0.0140787
0.0941506
0.0704711
0.0599312
0.0683645
0.0663857
-0.0707001
-0.0533307
-2.33881
-0.517589
-5.24429
-5.51297
-7.14859
7.08778
8.07316
6.00671
4.8416
5.09275
6.46646
6.94557
4.12796
5.26479
5.30373
8.22635
8.04489
7.78222
7.77386
7.75912
7.76026
7.7717
-1.18643
0.846196
0.307894
1.66414
6.55467
7.11349
4.20358
4.53671
5.3899
5.20547
11.365
11.7225
10.4478
11.1172
11.1583
6.81062
8.74012
9.97006
8.85542
9.95544
10.6142
9.60778
10.4884
8.88227
7.96436
7.9339
6.4783
7.26985
6.77515
6.20751
8.18724
7.727
7.92595
7.80483
8.21373
9.17255
8.97886
9.31792
9.76968
8.04553
7.09252
7.45764
8.02234
7.01029
7.28125
7.68549
4.09983
4.96227
5.3578
4.58609
5.76997
5.08188
5.17989
4.72114
5.36399
3.68351
3.7533
1.64378
7.66362
13.6875
14.6899
15.0952
14.0611
13.6158
13.8316
14.5658
14.5306
12.035
12.4657
12.5279
11.5205
12.245
12.8226
12.8399
8.31386
6.19659
6.14356
4.93792
1.85937
2.77977
7.11455
5.52525
3.77569
3.69569
7.69839
4.88909
6.46556
7.81845
6.42656
4.90796
10.0151
11.4096
11.175
10.6187
8.51017
8.85156
9.31168
10.1631
10.902
11.7037
7.67616
7.74854
7.74414
7.7134
7.72845
7.7687
7.7937
7.80879
7.78304
7.80627
7.81381
-0.618025
-0.498206
-0.973055
-0.847931
-0.342982
-0.689987
-0.395059
-0.752415
-0.472105
-0.399976
-0.53284
-0.943868
-0.910236
-0.673726
1.13113
1.38517
1.23002
0.578192
2.22105
3.36701
3.92581
3.20104
1.82504
2.14575
2.51089
0.229944
0.381264
0.243175
0.469776
0.384544
-0.313662
-0.289356
-0.173947
-0.0794184
-0.18064
-0.167913
-0.218624
-0.186231
-0.220424
-0.27427
-0.251491
7.54775
7.48051
7.58783
7.4813
7.42873
7.6755
7.70263
7.76371
7.83261
7.90408
7.76621
7.89263
7.9365
-0.023604
-0.0582591
-0.0372548
-0.136217
-0.0712504
-0.0902962
-0.126065
2.68886
0.579824
1.73288
-0.00566092
-3.23959
-1.84736
6.28542
7.69209
8.13212
7.60839
6.45514
6.6809
7.83471
8.2213
4.16802
5.43008
4.6355
7.61834
7.44884
8.19792
5.7204
3.51202
5.82673
6.30344
4.31113
5.1329
4.77997
2.52063
3.07433
3.93387
5.41765
5.77634
5.26916
4.98892
4.74061
5.98747
5.62129
6.92594
7.59288
3.54145
3.21658
2.05722
11.303
11.6645
12.0703
11.4487
11.9493
9.98973
9.89446
10.3527
10.6027
10.2351
3.20479
3.61284
2.46538
6.1147
7.0006
8.07835
6.94403
11.9658
10.873
13.3635
13.2088
11.915
10.9448
10.9581
12.0686
5.02951
7.7279
6.90689
7.39053
5.57831
3.78743
10.5196
10.5045
11.2826
11.846
11.1728
11.851
7.6976
7.71398
7.66441
7.62669
7.62183
7.67529
0.333416
0.0044559
0.510483
0.192173
-0.151709
-0.15384
-0.0925488
-0.117242
-0.102914
-0.0695389
-0.0557624
-0.0464954
3.26444
3.44709
0.80784
2.17013
-0.958475
-2.07601
-2.86547
0.0656084
1.66685
1.16973
4.62242
5.96435
5.02075
5.64266
4.36924
4.8792
7.69511
7.35653
8.01518
6.3882
6.52844
6.79948
4.50032
5.74839
11.5359
11.0022
9.24095
8.43294
8.44487
10.1679
8.84571
7.78164
8.64301
9.8994
9.81469
5.15662
5.17179
6.0326
6.60466
5.07113
5.55129
5.13329
5.89459
5.43663
)
;

boundaryField
{
    wall-4
    {
        type            zeroGradient;
    }
    velocity-inlet-5
    {
        type            zeroGradient;
    }
    velocity-inlet-6
    {
        type            zeroGradient;
    }
    pressure-outlet-7
    {
        type            fixedValue;
        value           uniform 0;
    }
    wall-8
    {
        type            zeroGradient;
    }
    frontAndBackPlanes
    {
        type            empty;
    }
}


// ************************************************************************* //
