/*--------------------------------*- C++ -*----------------------------------*\
| =========                 |                                                 |
| \\      /  F ield         | OpenFOAM: The Open Source CFD Toolbox           |
|  \\    /   O peration     | Version:  4.0                                   |
|   \\  /    A nd           | Web:      www.OpenFOAM.org                      |
|    \\/     M anipulation  |                                                 |
\*---------------------------------------------------------------------------*/
FoamFile
{
    version     2.0;
    format      ascii;
    class       volVectorField;
    location    "7";
    object      U;
}
// * * * * * * * * * * * * * * * * * * * * * * * * * * * * * * * * * * * * * //

dimensions      [0 1 -1 0 0 0 0];

internalField   nonuniform List<vector> 
918
(
(4.98428 -0.000817929 0)
(0.00492367 4.96591 0)
(-0.0633467 5.74575 0)
(4.97868 0.00183827 0)
(-0.0136908 6.08758 1.5278e-20)
(-0.0067692 4.94767 -3.21487e-17)
(4.18913 5.92248 1.01816e-17)
(2.59171 1.11164 -3.1762e-19)
(4.99993 -9.55449e-05 0)
(0.389184 4.87492 0)
(0.0596255 4.46172 0)
(4.56249 -0.00540359 0)
(0.0105194 4.92894 0)
(-0.0341861 4.79623 0)
(-0.088304 6.15406 -5.20961e-18)
(-0.0138084 6.03751 -3.0361e-20)
(3.17482 0.700395 1.84478e-17)
(0.989018 6.20411 7.43792e-18)
(4.96079 0.00698676 0)
(-0.039421 4.83578 0)
(1.25317 1.33124 -1.53016e-17)
(5.00209 -0.00440966 0)
(5 -0.00895517 0)
(4.97501 -0.00641577 0)
(4.09261 0.0829959 0)
(0.0545465 4.2898 0)
(-0.0237062 4.91279 1.44646e-17)
(-0.097143 5.76193 0)
(-0.109999 6.13291 0)
(-0.0848291 5.73388 0)
(-0.0352761 6.48401 0)
(-0.0149743 6.12928 -1.31991e-20)
(-0.0152404 6.0014 0)
(-0.0218091 4.98711 -1.23931e-21)
(-0.0172517 5.00548 2.45785e-17)
(0.00215851 5.00076 0)
(4.88766 -0.0129492 0)
(2.13898 3.00594 4.09174e-18)
(4.5184 5.82236 -1.39669e-17)
(5.13667 5.16587 1.63918e-17)
(3.62796 6.22676 -2.06932e-18)
(3.37038 6.36911 1.20881e-17)
(2.58963 1.36211 2.80739e-19)
(2.69322 1.15416 0)
(6.07397 3.0835 0)
(2.49542 1.50437 1.42101e-18)
(2.31032 1.43148 -1.34077e-18)
(4.92174 -0.00830986 0)
(5.0003 0.000330081 0)
(4.99994 0.000592401 0)
(5.00368 -0.00757405 0)
(5.0009 -0.000512098 0)
(5.00021 0.000251691 0)
(0.26705 5.40728 -5.16129e-18)
(0.127143 5.41154 0)
(0.550048 5.10754 0)
(0.0905 5.2504 0)
(0.292042 4.68837 0)
(0.0502797 6.02738 0)
(-0.00166717 5.0215 0)
(0.095567 4.46405 0)
(-0.0219334 5.03076 0)
(0.0282952 4.49733 0)
(4.94662 -0.00199679 0)
(4.73235 0.056584 0)
(4.64773 -0.00171332 0)
(4.66585 0.0681644 0)
(4.45769 0.0291996 0)
(0.0148272 4.99993 1.2522e-17)
(0.0122359 5.00539 0)
(0.0070815 5.00413 0)
(0.0137817 4.99641 1.49822e-22)
(0.00826793 4.95766 -1.8339e-17)
(0.0152132 4.98256 0)
(0.00918042 4.90271 0)
(0.0445511 4.90127 3.88797e-23)
(-0.01448 4.83211 0)
(0.073506 4.86089 0)
(-0.0508555 4.71391 0)
(0.870205 7.14193 0)
(-0.23511 7.43194 0)
(0.389324 6.30252 4.88399e-18)
(0.0529801 5.56512 0)
(-0.0669413 6.37192 0)
(-0.00690009 6.24361 2.99301e-20)
(-0.00461772 6.05706 -4.36202e-20)
(3.28965 0.761956 -6.94557e-18)
(3.31655 0.380958 -6.78409e-18)
(3.12593 0.842933 -1.90595e-17)
(3.09248 0.685278 -1.39076e-17)
(0.910038 3.92641 0)
(1.37774 6.69742 -8.44896e-18)
(1.6955 6.64268 1.35424e-17)
(4.98566 0.00990608 0)
(4.93816 0.00657352 0)
(5.00029 0.000830109 0)
(5.00244 0.00953979 0)
(5.003 0.00991116 -3.87575e-17)
(4.99151 0.00948438 2.73475e-17)
(-0.0864755 5.30025 0)
(-0.0287307 4.73659 0)
(-0.118467 5.75918 0)
(-0.0937394 5.39139 0)
(-0.0591624 4.96094 0)
(1.58155 1.54317 4.58769e-18)
(1.68034 1.46035 0)
(4.9945 -0.00749248 0)
(4.95403 -0.00698421 0)
(4.52872 0.0713487 0)
(4.33075 0.0706757 0)
(4.30767 0.0592469 0)
(5.42951 -0.0823964 0)
(4.07782 0.100992 0)
(3.74614 0.160991 2.55875e-17)
(0.00901032 4.98665 1.44792e-17)
(0.125557 4.80585 0)
(0.200776 4.74769 0)
(-0.0658664 4.56961 0)
(-0.00542002 4.98436 1.45621e-17)
(-0.0275315 4.90916 0)
(-0.0127765 4.98747 -4.33302e-17)
(-0.0185908 4.92532 1.44987e-17)
(-0.0827711 6.40891 0)
(-0.0610394 6.39013 0)
(-0.0139529 6.20927 -3.56957e-24)
(-0.0147829 6.1573 0)
(-0.0173105 6.02459 0)
(4.95619 0.00298109 0)
(4.88604 -0.015473 0)
(4.83978 0.00388424 0)
(4.96099 -0.000162001 0)
(4.89366 -0.0113561 0)
(2.28705 4.1208 -5.10701e-18)
(2.23213 3.46379 0)
(2.0873 3.91955 6.29843e-19)
(2.0463 2.71311 0)
(4.80758 5.24592 -4.0478e-18)
(5.37439 4.6936 7.84161e-18)
(2.08248 6.75193 0)
(2.84203 6.58524 0)
(2.54935 6.65028 0)
(1.75215 2.73015 -3.9852e-18)
(2.75813 1.28379 0)
(2.85117 0.860024 3.97936e-18)
(5.49503 4.38424 0)
(5.64639 3.74128 0)
(5.95313 3.54142 -7.8471e-18)
(6.20197 2.84104 0)
(6.43064 2.11951 1.31915e-18)
(4.96483 -0.00392212 0)
(4.96672 -0.00689315 0)
(4.90648 -0.0104548 0)
(4.98568 -0.00757765 0)
(4.977 -0.00703333 0)
(4.93675 -0.00700241 0)
(5.00013 0.00298738 0)
(5.00067 0.00173076 0)
(4.99995 0.00106451 0)
(0.155782 5.69243 2.84925e-18)
(0.368265 5.21947 0)
(0.0923242 5.94487 4.5629e-18)
(0.176374 5.60705 -3.78506e-18)
(0.723779 6.11192 -6.13808e-18)
(0.184376 5.61998 0)
(0.519922 5.63073 0)
(0.0658222 5.1303 0)
(0.224233 4.56632 0)
(0.0437684 6.24123 -6.66271e-21)
(0.0735294 5.96334 0)
(0.0350825 6.26198 -2.62854e-19)
(0.0411523 6.07046 4.47949e-19)
(0.0472027 5.05626 0)
(0.0227397 5.01827 0)
(0.15816 4.49361 0)
(-0.0426766 5.07279 0)
(0.00245491 4.56263 0)
(5.04114 0.0422072 0)
(4.99911 0.0158576 0)
(4.99588 0.0273383 0)
(4.91102 -0.00620252 0)
(4.76155 -0.00813532 0)
(4.84602 0.040167 0)
(4.79717 0.04933 0)
(4.70921 -0.00625359 0)
(0.00707542 5.0616 -1.21202e-19)
(0.0100736 5.06267 0)
(0.0169137 4.96944 0)
(0.00476226 4.87673 0)
(2.2472 8.33532 0)
(2.98551 7.25941 2.12773e-18)
(0.215062 5.70097 0)
(0.0394376 5.21381 0)
(-0.0731301 6.34495 0)
(-0.0781164 6.35661 0)
(-0.0700014 6.34901 0)
(-0.0507512 6.46701 1.36809e-20)
(-0.0719889 6.39897 0)
(-0.0567497 6.4147 0)
(0.0162195 6.05944 1.08602e-20)
(0.00871771 6.30739 7.85215e-20)
(-0.000431268 6.28255 4.45181e-20)
(0.00364458 6.0593 0)
(3.38711 0.488844 9.53675e-18)
(3.41103 0.294838 -9.21242e-18)
(0.610865 4.6515 0)
(1.13098 3.60087 -2.53292e-18)
(0.475904 4.82821 -7.54012e-18)
(0.729404 4.2335 7.56107e-18)
(4.89076 0.00498597 0)
(4.96249 0.014109 0)
(4.97155 0.0124119 0)
(4.9163 0.00610015 0)
(-0.0597538 5.13358 0)
(-0.0768772 5.21251 0)
(-0.0153458 4.64782 0)
(2.1855 1.60058 1.18265e-17)
(1.99719 1.59709 -1.58588e-17)
(2.14484 1.20665 0)
(5.89798 0.451154 2.76779e-19)
(5.96781 0.109418 0)
(5.50909 0.182702 0)
(5.18857 0.0282843 0)
(3.55464 0.497445 0)
(3.72446 0.289778 -4.07797e-17)
(3.54034 0.141212 1.73552e-17)
(0.0465273 5.03844 1.36157e-17)
(-0.0175055 4.9426 1.83788e-19)
(0.00818395 5.05082 -2.89267e-19)
(0.0142786 5.04748 1.02909e-17)
(-0.0151448 4.99727 4.62602e-19)
(-0.0137441 4.94884 -1.84802e-21)
(-0.0173528 5.01352 -8.1539e-18)
(0.0114743 5.02882 5.52527e-18)
(0.00598455 5.03414 -9.0162e-18)
(4.97759 0.0205065 0)
(4.96567 0.0120318 0)
(4.89176 -0.0103697 0)
(4.94766 0.0166838 0)
(4.92678 0.0202398 0)
(4.86465 0.00438588 0)
(4.88184 0.0307517 0)
(4.90091 0.0239028 0)
(4.80514 -0.00506459 0)
(2.46772 4.40689 -4.43743e-18)
(2.25436 4.00839 0)
(1.90234 2.61825 1.18945e-18)
(1.78404 3.80574 9.17839e-18)
(1.9262 3.83913 -5.44748e-18)
(1.96275 2.61707 1.04696e-17)
(1.35774 3.96899 1.95817e-17)
(1.62584 2.91625 3.88501e-18)
(3.02591 1.11464 1.49097e-17)
(2.85291 1.14733 3.3561e-18)
(2.94455 0.98244 6.7461e-18)
(6.25936 2.18262 3.85665e-18)
(6.44042 1.55424 3.8259e-18)
(0.079341 6.04147 1.73329e-18)
(0.14606 5.76457 0)
(5.25445 0.10253 0)
(5.12109 0.0586521 0)
(5.07154 0.0115875 0)
(0.00706327 5.07827 0)
(0.0300784 4.93267 2.05924e-17)
(0.0213741 4.95411 0)
(-0.00292276 4.85343 -2.03379e-17)
(0.00187078 5.09162 5.06979e-18)
(0.0122189 5.07798 0)
(2.4848 4.68775 3.05865e-19)
(3.11719 5.83445 -1.01904e-18)
(2.35325 4.84639 -1.92668e-18)
(0.0879745 5.14385 -1.3358e-17)
(0.128555 5.34206 0)
(0.0433752 5.07413 0)
(0.0278882 6.28323 -5.49479e-20)
(0.0208997 6.31031 -1.88568e-19)
(0.0303071 6.06868 -2.9546e-20)
(0.793696 4.37711 8.02028e-18)
(1.28804 3.43991 -5.6509e-18)
(0.217365 5.44298 5.14446e-18)
(0.318124 5.16313 -6.33947e-18)
(0.528821 4.76242 7.74015e-19)
(0.0302425 5.12796 -3.41881e-17)
(0.0348579 5.1217 3.68718e-17)
(0.00683964 4.98444 1.46447e-17)
(0.0204755 4.99913 -1.46952e-17)
(-0.019884 4.91631 -1.49142e-17)
(0.0177917 5.09509 -3.90599e-17)
(0.00980485 5.10064 3.81018e-17)
(1.50654 3.80527 0)
(1.64694 3.80158 -1.96463e-17)
(1.80823 2.71129 8.75729e-18)
(1.2151 3.98978 1.07837e-17)
(1.52091 3.02068 -1.68511e-17)
(6.29217 0.871895 8.98775e-20)
(6.42012 1.30135 0)
(6.42038 0.641067 1.30963e-18)
(0.0547169 6.2003 -1.02431e-20)
(0.070477 6.12951 0)
(0.108988 5.87036 0)
(0.927073 4.26077 -2.96388e-18)
(1.05776 4.17287 -6.79352e-18)
(1.41154 3.1989 1.25483e-17)
(5.00732 -0.0107799 0)
(5.00872 -0.00695205 6.91691e-18)
(-0.0855339 6.37228 0)
(-0.125043 6.42137 0)
(5.00226 0.00406402 8.94468e-21)
(5.00324 0.00926441 1.52278e-17)
(-0.0456034 6.48072 -1.56385e-20)
(-0.0405833 6.50098 0)
(0.259889 5.42225 1.221e-17)
(1.11034 6.40022 0)
(5.20376 3.43151 -3.91826e-19)
(5.00952 0.0146697 -9.33908e-21)
(5.02654 -0.00644966 0)
(5.00159 0.00137248 2.70744e-21)
(0.311294 6.58412 0)
(0.280186 6.56028 0)
(-0.00585605 6.3825 0)
(0.0299406 6.74498 3.46917e-19)
(-0.0217488 6.6686 1.10391e-19)
(4.89601 0.0930231 9.35445e-20)
(5.13129 0.0503156 0)
(5.25056 0.117941 0)
(-0.0800275 6.36087 0)
(-0.0382957 6.55283 0)
(-0.0890896 6.36733 0)
(1.01169 6.99458 -4.25783e-18)
(5.0129 -0.00765291 0)
(5.01203 -0.0149237 0)
(5.0026 0.00251057 9.09422e-18)
(5.00606 -0.00425951 -1.02574e-17)
(5.00093 -0.00033214 0)
(-0.0849065 6.35084 0)
(-0.0792905 6.35089 0)
(-0.0804486 6.35311 0)
(-0.0889418 6.36696 0)
(-0.0942713 6.35291 0)
(-0.100928 6.37164 0)
(5.0549 0.00573755 0)
(4.99716 0.0271167 1.44171e-20)
(3.48334 6.10548 7.44712e-18)
(5.00205 0.00204956 -8.6139e-18)
(5.00311 0.00506084 1.05045e-17)
(5.0015 0.00319289 0)
(5.00931 0.0126576 9.27313e-18)
(5.00504 0.00889914 -1.15219e-17)
(5.00619 0.0130397 0)
(-0.0395398 6.55038 0)
(-0.0428524 6.51829 -2.16854e-21)
(-0.0390015 6.53535 -1.49866e-22)
(5.77805 1.30014 6.97135e-18)
(5.50921 0.385031 0)
(0.401655 4.94056 -2.21509e-17)
(0.264268 4.65491 -1.46969e-18)
(0.669585 5.38608 2.9031e-17)
(0.520098 5.5389 -8.47497e-18)
(0.57476 5.64792 0)
(0.128336 5.20469 5.57323e-18)
(0.362564 5.24677 2.18984e-17)
(0.348881 5.38571 -1.03401e-17)
(0.145859 5.07139 0)
(3.32853 1.73961 0)
(3.00096 1.93681 0)
(5.25794 3.52105 2.39399e-19)
(4.98549 4.23073 9.05039e-19)
(5.52486 2.89428 0)
(5.51126 2.78489 0)
(5.01282 0.0157799 -1.7365e-17)
(5.01188 0.0177953 2.0074e-17)
(5.03514 -0.00451207 0)
(5.03153 -0.0107468 0)
(5.00641 0.00765483 0)
(5.00989 0.00805098 0)
(5.00415 0.00386697 0)
(5.00816 0.0104553 0)
(5.00571 0.00747227 0)
(5.00424 0.00769899 0)
(0.2907 6.54957 0)
(0.174523 6.51561 0)
(0.404786 6.73285 0)
(0.363083 6.76789 0)
(0.33957 6.52857 0)
(0.356952 6.60379 -2.75638e-18)
(0.253506 6.68107 0)
(0.175339 6.70198 1.36718e-18)
(0.104789 6.76994 -1.08171e-18)
(-0.013161 6.37368 0)
(-0.0377128 6.36734 0)
(0.0240997 6.38762 0)
(0.0345628 6.34889 0)
(0.0132389 6.40502 -1.0014e-20)
(-0.0218565 6.69077 9.26897e-20)
(0.00665926 6.76487 2.48764e-19)
(0.000154096 6.75881 0)
(-0.0235624 6.6715 -2.32282e-19)
(-0.0223625 6.65547 -8.6667e-20)
(0.0101116 6.38996 2.37745e-20)
(-0.0438254 6.56203 -1.50788e-19)
(-0.00996521 6.62079 -3.20459e-19)
(4.93409 0.112957 1.79328e-17)
(4.93774 0.0590943 -2.22307e-17)
(4.89446 0.139453 -1.89269e-17)
(4.8339 0.10526 2.41355e-17)
(5.13326 0.0569209 0)
(5.09863 0.00781763 0)
(5.23573 0.156114 0)
(5.16537 0.0769011 0)
(5.16062 0.0475382 0)
(5.44704 0.336375 0)
(5.29773 0.200056 0)
(5.29397 0.163494 0)
(-0.0699238 6.44807 6.37188e-22)
(-0.0859378 6.38133 0)
(-0.0698569 6.40163 0)
(-0.0364747 6.57116 1.17203e-20)
(-0.0253125 6.5935 -9.18075e-22)
(-0.0882602 6.35599 -3.60276e-20)
(-0.0896719 6.35645 3.66649e-20)
(-0.0904512 6.36151 0)
(-0.0913149 6.35863 0)
(-0.0931805 6.35698 0)
(-0.0845137 6.36434 0)
(-0.080209 6.36862 0)
(1.57314 7.05055 6.46582e-18)
(1.54604 7.07858 2.94259e-18)
(1.2342 6.05443 -2.0176e-18)
(0.723914 6.29723 5.08572e-18)
(1.17513 5.96103 9.82425e-19)
(5.02688 -0.0040108 0)
(5.01881 -0.00685058 0)
(5.0191 -0.0142772 0)
(5.0071 0.0035225 0)
(5.00543 0.000563194 0)
(5.00835 -0.0022581 0)
(5.01207 -0.000920268 0)
(5.0154 -0.000191471 0)
(5.00628 0.033187 1.72328e-17)
(5.00592 0.0198792 -2.08427e-17)
(5.00082 0.035799 -1.8305e-17)
(4.98882 0.0380306 2.01845e-17)
(3.45815 6.17198 0)
(2.91728 6.58231 6.36162e-18)
(4.0944 5.70265 3.11088e-18)
(4.09211 5.70927 -4.16033e-18)
(3.10622 5.43937 1.62682e-17)
(4.05001 0.653935 1.08432e-17)
(5.53583 0.447432 0)
(5.72894 0.856715 -5.28355e-18)
(5.58268 0.756759 -2.11576e-19)
(4.82242 0.642999 0)
(0.825779 5.13875 1.53527e-17)
(0.714241 4.68408 -2.69847e-17)
(0.462834 3.40401 1.69305e-17)
(0.910385 1.42229 -7.7107e-18)
(0.936354 6.29353 5.98994e-18)
(0.62032 5.94693 0)
(0.7167 6.07398 -7.79648e-18)
(1.01861 5.33227 -4.15249e-17)
(1.2087 5.71862 0)
(0.0506449 5.11658 9.61795e-19)
(0.0754856 5.12798 -9.8247e-18)
(0.058489 5.11167 1.5604e-17)
(0.177261 5.15208 0)
(0.180807 5.21348 0)
(3.36637 5.58749 0)
(2.74258 4.05639 -8.76143e-18)
(4.61171 5.06441 -1.3919e-18)
(4.66212 5.15263 0)
(4.12525 4.48684 -1.08927e-18)
(5.03296 4.35534 5.61475e-19)
(1.9834 2.05413 -1.99497e-17)
(3.54626 1.69932 -5.55347e-19)
(3.49801 1.55746 7.90156e-18)
(2.97794 2.09331 6.40829e-19)
(2.66674 1.9798 -2.59451e-17)
(3.36674 1.79369 0)
(3.41368 2.13175 1.14029e-17)
(3.40061 2.118 0)
(3.25031 2.02509 0)
(3.157 1.73957 0)
(3.78432 3.02668 6.79655e-18)
(5.80698 1.38958 -5.72764e-18)
(5.74158 2.0962 0)
(5.6657 1.98467 0)
(3.80832 1.16744 1.19905e-17)
(3.97073 2.61964 -7.02277e-18)
(3.56163 2.44729 1.20279e-17)
(4.451 2.07598 -1.33192e-17)
(5.00979 0.0233637 1.04092e-17)
(5.01164 0.0182743 -1.00228e-17)
(5.01047 0.0196287 0)
(5.05777 0.00680995 0)
(5.04421 -0.00197094 -1.08152e-17)
(5.04186 -0.00998123 1.06031e-17)
(5.01793 0.0305674 0)
(5.01326 0.0343101 0)
(5.011 0.0107823 0)
(5.01132 0.0139457 0)
(5.01471 0.0132023 0)
(5.01408 0.0094072 0)
(0.163202 6.51296 0)
(0.102165 6.43175 0)
(0.549839 6.64649 1.29097e-18)
(0.956926 6.93932 2.098e-18)
(0.499421 6.92022 4.47364e-18)
(0.586248 6.94645 -7.39262e-18)
(0.618893 6.72198 0)
(0.537887 6.21409 -2.15057e-19)
(0.50219 6.23254 0)
(1.06337 5.97692 -1.3886e-18)
(0.824451 6.08086 5.33985e-18)
(0.725726 6.25076 1.85694e-19)
(0.952017 6.57437 9.64726e-19)
(0.810902 6.60059 -7.96563e-19)
(1.2349 6.24083 -2.45287e-19)
(0.924952 6.10786 0)
(1.0143 6.07954 4.56265e-19)
(0.124495 6.50657 -1.91231e-19)
(0.116532 6.74024 0)
(0.219053 6.48963 1.29575e-18)
(0.183384 6.52207 0)
(0.167501 6.7221 -1.50023e-18)
(0.118658 6.77996 0)
(0.0369592 6.36523 2.19782e-19)
(0.0723579 6.31042 0)
(0.0674878 6.42814 0)
(0.0272403 6.42016 -2.52616e-19)
(0.028829 6.76294 -1.9729e-20)
(0.0847182 6.80812 1.25568e-18)
(0.0454243 6.8198 7.50916e-21)
(-0.0331189 6.39723 -2.94443e-21)
(-0.0245496 6.36082 -6.57459e-21)
(-0.0419858 6.36317 0)
(-0.0580294 6.36399 0)
(0.10645 6.22642 1.51062e-19)
(0.144416 6.40801 -1.42087e-19)
(0.105806 6.29133 4.50005e-20)
(0.183619 6.26356 0)
(-0.0756348 6.45563 1.39748e-20)
(-0.0699631 6.54792 4.51722e-21)
(-0.0564994 6.52744 -7.81683e-21)
(-0.0495674 6.39616 3.83817e-21)
(-0.0529 6.58269 -2.7402e-21)
(-0.0395082 6.59089 1.46001e-19)
(4.98736 0.0456226 -1.07522e-17)
(4.96975 0.0699259 1.19671e-17)
(4.96819 0.0384718 0)
(4.8867 0.246147 1.67154e-17)
(4.83442 0.185246 -2.01438e-17)
(4.72886 0.176141 2.28495e-17)
(4.8603 0.444105 -2.38795e-18)
(5.07534 0.0105297 0)
(5.09863 0.0252722 1.03708e-17)
(5.06767 -0.003481 -1.07416e-17)
(5.15279 0.165089 -6.4742e-19)
(5.13367 0.110633 5.54776e-18)
(5.11713 0.239979 0)
(5.07212 0.197193 -2.02242e-18)
(4.99114 0.146957 0)
(4.97677 0.124258 0)
(5.01961 0.0382984 0)
(5.006 0.0383212 0)
(5.03212 0.115493 4.20565e-18)
(5.03198 0.0952899 -9.31722e-18)
(5.0731 0.144519 -4.35594e-18)
(5.05369 0.142136 -4.81708e-18)
(5.14279 0.250728 9.58773e-18)
(5.26125 0.213012 0)
(5.28481 0.396452 0)
(-0.081858 6.44562 2.91401e-20)
(-0.085235 6.39381 1.32545e-21)
(-0.0859959 6.39541 0)
(-0.0649107 6.4884 -2.41835e-20)
(-0.0647022 6.45813 -1.96663e-21)
(-0.0682586 6.48299 1.98223e-21)
(-0.021768 6.6458 7.64851e-20)
(-0.0538492 6.58513 -5.23572e-21)
(-0.051658 6.57565 2.15561e-20)
(-0.0234036 6.60985 -3.60848e-20)
(-0.0220071 6.62735 4.38187e-20)
(-0.0893284 6.3602 -6.13016e-21)
(-0.0872593 6.36459 -6.77316e-20)
(1.6864 6.52349 -3.24769e-18)
(1.34646 6.27502 -1.11473e-19)
(2.90266 6.71098 -6.14104e-18)
(2.22984 6.98866 -3.26337e-18)
(2.262 6.97829 0)
(1.34012 5.95189 1.61692e-18)
(1.42946 6.0224 2.52759e-18)
(0.87071 6.1725 5.09939e-19)
(0.830874 6.08721 -5.79831e-18)
(1.07756 6.00385 4.40202e-18)
(1.17972 6.11193 0)
(0.945144 6.23927 -3.76227e-18)
(0.482727 6.41673 7.30626e-18)
(0.695186 6.32685 -4.68048e-19)
(0.493395 6.51746 -1.02688e-17)
(2.35471 5.59832 1.18964e-17)
(2.01908 5.7978 0)
(5.01237 0.00468112 3.97624e-19)
(5.01844 5.12974e-06 -2.84742e-19)
(5.01884 0.00326261 -5.15986e-18)
(5.01785 0.00520498 5.34377e-18)
(5.01356 0.00765753 0)
(3.11195 5.83502 0)
(3.22004 5.31129 0)
(3.71358 5.04163 0)
(3.23147 5.21107 0)
(3.07408 5.47808 -2.48617e-19)
(3.04366 5.46532 0)
(2.48678 5.22422 6.60037e-20)
(1.97615 5.6266 0)
(2.2 5.46127 -6.78397e-18)
(2.29398 5.52269 4.38385e-18)
(4.11022 0.715654 0)
(3.99689 0.880226 3.08467e-18)
(4.45313 0.671112 1.64048e-17)
(4.19554 0.548727 -6.37146e-18)
(4.17435 0.450483 -1.9449e-17)
(5.1524 1.07074 -1.2157e-17)
(4.6932 1.2958 -3.4924e-19)
(4.38587 1.39557 1.54252e-17)
(4.76776 0.993889 1.24932e-17)
(4.50447 0.850572 -2.15511e-17)
(4.36661 0.875183 2.75579e-18)
(4.52926 1.2179 -5.92182e-18)
(4.3686 0.945734 0)
(4.73264 0.778872 1.07789e-17)
(4.98347 0.826046 0)
(4.94138 0.923833 0)
(5.31576 0.499557 4.10098e-18)
(5.07364 0.762398 -2.37044e-19)
(5.10833 1.08935 -2.38804e-18)
(5.28745 0.911382 0)
(4.94693 0.149434 9.2793e-18)
(5.00244 0.235148 1.19832e-17)
(4.98702 0.156178 -9.84962e-18)
(5.0138 0.256843 -7.92533e-18)
(4.90722 0.270405 -1.17869e-17)
(4.70017 0.638956 0)
(4.77873 0.400355 0)
(4.70385 0.244339 -8.16716e-18)
(4.54758 0.347619 3.05274e-18)
(4.97771 0.439594 1.13202e-17)
(5.10892 0.524564 -1.27779e-17)
(5.12781 0.693905 1.21059e-17)
(4.9315 0.603422 0)
(5.16326 0.456761 0)
(5.06039 0.399911 -5.23507e-18)
(5.00582 0.397782 -9.23405e-18)
(2.8513 5.0069 2.43716e-18)
(2.60786 5.05525 -2.87459e-18)
(2.79288 5.28836 -4.22131e-18)
(2.93176 5.77168 8.20395e-19)
(3.11416 5.60746 -1.01909e-17)
(3.33697 5.65723 4.69498e-18)
(3.41452 5.47605 -2.56119e-19)
(2.96744 5.73147 -4.0087e-18)
(2.9136 5.72059 6.85194e-18)
(2.9849 6.19403 1.03083e-18)
(3.38105 5.96897 -1.29663e-18)
(3.51303 5.95824 0)
(2.89583 4.12574 -7.10819e-19)
(1.52299 3.09603 8.39281e-18)
(1.94161 2.6277 1.29408e-17)
(1.44976 2.38734 1.51939e-17)
(2.6508 2.20977 1.42979e-17)
(2.76085 2.52661 -2.34597e-17)
(2.47307 2.56277 1.89761e-17)
(2.2867 2.34696 -7.5586e-18)
(2.40241 1.94184 1.67108e-17)
(3.87327 1.30968 -6.77779e-18)
(3.66334 1.50297 0)
(3.62408 1.34989 3.04253e-19)
(3.50108 2.52302 7.18178e-18)
(3.2395 2.35685 -2.48205e-17)
(2.91113 2.50903 6.48045e-19)
(3.16216 2.32902 0)
(3.36915 3.58851 6.03338e-18)
(3.94174 3.72845 6.24951e-18)
(3.63211 4.02431 -7.54403e-18)
(4.16291 3.88396 -2.26858e-18)
(4.44267 4.00942 -3.60353e-19)
(4.4396 4.08289 3.641e-19)
(4.04001 3.16155 -1.10566e-17)
(4.43353 3.41532 2.06807e-18)
(4.75501 3.44378 0)
(4.75738 3.30057 -2.66713e-18)
(4.85698 1.5893 3.59835e-18)
(5.49006 1.44822 3.68296e-18)
(5.08114 1.25953 5.57315e-18)
(4.72108 1.70621 -7.17491e-18)
(4.97842 2.04526 0)
(5.29936 1.93245 0)
(4.28545 1.74378 5.03199e-20)
(4.02739 1.37371 0)
(4.06318 1.33073 7.6015e-18)
(4.23316 1.42959 6.3895e-20)
(4.44129 2.11065 3.79527e-17)
(4.22554 2.39278 9.05521e-18)
(4.25128 2.23842 -1.01662e-17)
(3.92872 2.12124 1.07023e-17)
(3.8408 2.09818 6.57674e-18)
(3.70736 2.0147 -6.7994e-18)
(5.03709 0.0127989 9.79305e-18)
(5.01935 0.0115314 0)
(5.0192 0.0118263 5.90308e-18)
(5.02975 0.0125835 -1.41238e-17)
(5.02341 0.0177114 6.54445e-18)
(5.0166 0.0264152 -1.30818e-17)
(5.01332 0.0242061 0)
(5.01274 0.0223956 -2.8611e-18)
(5.01384 0.0161477 7.26225e-18)
(5.01222 0.01902 -3.70884e-18)
(5.01095 0.019455 2.7967e-18)
(0.0667008 6.40152 0)
(0.053309 6.44492 0)
(0.110322 6.45608 0)
(0.0794465 6.37063 0)
(0.249799 6.44846 -1.04615e-18)
(0.285028 6.52687 2.18851e-19)
(0.337713 6.31675 1.41179e-19)
(0.358293 6.51754 -1.02138e-18)
(0.173646 6.42148 5.21746e-19)
(0.178937 6.43193 -4.23214e-19)
(0.238147 6.47166 -3.60252e-19)
(0.145861 6.54334 1.01999e-18)
(0.103179 6.50782 1.67579e-19)
(0.0939623 6.48967 9.72219e-20)
(0.265353 6.47201 -1.43013e-18)
(0.316564 6.49426 0)
(0.405306 6.24998 9.3278e-19)
(0.43544 6.2515 3.6602e-19)
(0.761607 6.14646 -6.97792e-19)
(0.536595 6.2041 0)
(0.558409 6.13065 -5.58613e-18)
(0.778061 6.11469 3.74233e-18)
(0.668196 6.14733 -1.95789e-18)
(0.4669 6.26691 1.18289e-18)
(0.329366 6.23804 0)
(0.0836208 6.31043 -3.41171e-19)
(0.0259897 6.57968 -7.34815e-19)
(0.030665 6.41618 0)
(0.0791644 6.63302 -5.30428e-20)
(0.0894909 6.52011 2.47571e-19)
(0.00670573 6.37635 -5.17012e-20)
(-0.0234331 6.36313 7.04121e-19)
(-0.035874 6.35695 -2.95954e-19)
(-0.0189397 6.35741 -1.16539e-19)
(0.0311998 6.36747 0)
(-0.0498273 6.35551 0)
(-0.0746371 6.36383 -2.19006e-19)
(-0.070812 6.35821 7.10556e-20)
(-0.05944 6.36342 0)
(-0.0626944 6.36024 -1.88144e-19)
(-0.0726299 6.36714 3.59118e-19)
(5.06294 0.0572321 0)
(5.08024 0.0492892 -9.81458e-19)
(5.04148 0.087382 -7.36866e-18)
(5.06986 0.0888932 0)
(5.08259 0.0905897 0)
(5.03295 0.0523175 -8.80444e-20)
(5.02588 0.0522797 1.19569e-17)
(5.0222 0.0556194 1.36166e-17)
(5.00763 0.0562152 0)
(4.98762 0.0549742 0)
(5.02593 0.0892539 7.17172e-18)
(4.98695 0.0822291 0)
(4.98617 0.0777331 0)
(-0.0690402 6.41766 0)
(-0.085347 6.36728 4.34222e-21)
(-0.0838947 6.37486 4.30675e-21)
(-0.0777758 6.35415 0)
(-0.0823626 6.36815 -4.43e-20)
(-0.0888092 6.3625 2.82907e-20)
(-0.0885702 6.35745 0)
(1.80332 5.7699 0)
(1.35337 5.97894 -3.77555e-19)
(1.26029 5.83373 0)
(1.87087 6.03254 -8.00935e-19)
(2.17593 6.55156 0)
(1.92938 6.39863 9.09971e-19)
(2.28771 5.61367 -2.06633e-19)
(2.40642 5.59981 -1.13985e-17)
(2.54478 5.58057 1.37406e-17)
(2.02235 5.76791 2.74124e-18)
(1.98186 5.62954 0)
(2.16655 5.48352 0)
(2.30956 5.65729 0)
(2.17955 5.78177 -9.98866e-18)
(1.63675 5.80237 -5.04362e-18)
(1.88135 5.58461 -1.19803e-18)
(1.96796 5.61538 7.9571e-19)
(1.5904 5.89216 0)
(1.88348 5.88203 0)
(1.69625 5.94373 -2.9881e-18)
(1.75503 5.77487 0)
(3.16639 4.93172 0)
(2.8595 4.56767 -7.10129e-18)
(2.85409 4.60281 -3.95736e-19)
(2.88897 4.85709 0)
(2.92224 4.79207 1.05089e-17)
(3.77382 4.17838 -1.73248e-18)
(3.80152 4.73477 0)
(3.71447 4.63492 1.91893e-18)
(3.34932 4.7052 0)
(3.31784 4.45516 0)
(2.82596 5.39267 -5.53295e-18)
(2.74797 5.3516 -3.11453e-18)
(2.65009 5.1515 4.91376e-18)
(2.66092 5.22342 -1.7106e-18)
(2.79726 5.5091 0)
(2.71639 5.48697 2.35879e-18)
(2.96415 5.49106 -3.43232e-18)
(2.89474 5.49199 -1.90848e-19)
(2.51249 5.30552 0)
(2.59784 5.22646 -2.13712e-18)
(2.74389 5.30348 0)
(4.12917 1.05131 0)
(4.01993 0.881397 0)
(3.77608 0.979793 0)
(4.10912 1.0865 -1.13837e-17)
(3.94243 1.07971 6.80501e-18)
(4.54732 0.335075 -5.26383e-18)
(4.57657 0.546049 0)
(4.43832 0.556114 3.18234e-18)
(4.31915 0.364279 1.09038e-17)
(4.35541 0.364084 -6.77776e-18)
(2.9414 6.49474 1.26966e-18)
(2.97999 6.23896 0)
(2.93067 6.44735 3.84038e-18)
(1.67445 6.67603 -4.04122e-18)
(2.30476 5.37489 -5.58555e-18)
(2.6654 4.2168 8.6904e-18)
(2.79917 4.40844 0)
(2.40228 3.47027 -2.67784e-18)
(2.49482 3.53182 1.38964e-17)
(2.10773 3.01411 -4.23244e-18)
(2.60705 2.85913 4.31631e-18)
(3.17426 2.69697 9.30203e-18)
(3.33486 2.76132 0)
(3.02086 3.23484 0)
(2.75882 2.93211 0)
(4.73612 2.83627 7.84497e-19)
(4.2985 2.61826 -9.08071e-18)
(4.47032 2.7991 5.82322e-18)
(4.61595 2.4072 -6.90321e-18)
(4.97184 2.27585 0)
(5.13562 2.72143 -1.4543e-18)
(4.05676 1.87102 -1.50019e-17)
(4.03482 1.78551 -1.98048e-17)
(3.85524 1.85992 1.21148e-17)
(3.8212 1.67986 -1.29067e-17)
(4.01672 1.49209 -9.89984e-18)
(3.87334 1.5047 1.20888e-17)
(5.02837 0.0240314 -7.36948e-18)
(5.02456 0.0241413 1.38299e-17)
(5.03992 0.0185512 9.60905e-18)
(5.04651 0.0200081 -1.10846e-17)
(5.04508 0.0490016 0)
(5.0282 0.0473033 -1.8262e-17)
(0.2346 6.2454 1.0382e-19)
(0.198818 6.27681 0)
(0.333423 6.23326 7.03048e-19)
(0.365173 6.26721 -5.60525e-19)
(0.260114 6.30279 -2.67442e-19)
(0.249006 6.27481 0)
(-0.0576828 6.37988 0)
(-0.0595418 6.36522 3.62216e-20)
(-0.0730888 6.35821 -3.27958e-20)
(-0.0800892 6.36747 4.64484e-21)
(-0.0702449 6.41064 3.679e-20)
(-0.0678087 6.41906 2.41592e-21)
(2.28827 5.33765 -6.73597e-18)
(2.16201 5.44819 7.21087e-18)
(1.91664 5.86198 -5.99127e-19)
(2.03871 5.58201 2.5308e-19)
(3.02318 5.85807 0)
(2.50221 6.27896 3.20431e-18)
(2.70743 6.29371 -3.07632e-18)
(2.15058 5.99228 6.12666e-19)
(2.50652 5.55366 0)
(2.64825 5.58737 0)
(1.58474 5.72555 7.59373e-18)
(1.50043 5.78206 1.15688e-17)
(1.65916 5.82617 -8.05296e-18)
(1.36857 5.81775 -1.58439e-18)
(1.35136 5.91809 2.37359e-18)
(1.05689 5.95512 -6.06357e-18)
(2.63526 5.51709 -7.8017e-18)
(2.78082 5.50861 0)
(2.71321 5.52084 -7.45005e-18)
(2.54887 5.48665 0)
(2.53153 5.46227 0)
(2.24241 4.95281 -5.89561e-18)
(2.56538 5.43524 -3.96989e-18)
(2.37134 5.50693 3.89654e-18)
(1.639 3.49655 0)
(2.18893 3.69968 -4.93005e-18)
(2.48828 4.01291 -5.47288e-18)
(1.95097 4.61544 0)
(1.67704 4.98281 4.25171e-18)
(1.6443 4.82102 0)
(3.38383 3.42041 -1.31775e-17)
(3.72946 3.31736 1.86581e-17)
(3.74561 3.14717 -1.95508e-17)
(3.29394 3.23916 -1.77068e-18)
(3.52296 3.02113 -7.65834e-18)
(2.56683 5.25777 3.21338e-18)
(2.56424 5.1125 -6.26792e-18)
(2.29476 5.02153 9.20848e-18)
(2.56981 4.74826 -6.29209e-18)
(2.71264 4.98496 -5.58131e-18)
(2.69541 4.95406 -5.52987e-19)
(2.68848 4.94596 5.14484e-18)
(2.61142 4.84841 5.04671e-19)
(2.67818 4.97287 2.79914e-18)
)
;

boundaryField
{
    wall-4
    {
        type            noSlip;
    }
    velocity-inlet-5
    {
        type            fixedValue;
        value           uniform (5 0 0);
    }
    velocity-inlet-6
    {
        type            fixedValue;
        value           uniform (0 5 0);
    }
    pressure-outlet-7
    {
        type            zeroGradient;
    }
    wall-8
    {
        type            noSlip;
    }
    frontAndBackPlanes
    {
        type            empty;
    }
}


// ************************************************************************* //
