/*--------------------------------*- C++ -*----------------------------------*\
| =========                 |                                                 |
| \\      /  F ield         | OpenFOAM: The Open Source CFD Toolbox           |
|  \\    /   O peration     | Version:  4.0                                   |
|   \\  /    A nd           | Web:      www.OpenFOAM.org                      |
|    \\/     M anipulation  |                                                 |
\*---------------------------------------------------------------------------*/
FoamFile
{
    version     2.0;
    format      ascii;
    class       volScalarField;
    location    "1";
    object      p;
}
// * * * * * * * * * * * * * * * * * * * * * * * * * * * * * * * * * * * * * //

dimensions      [0 2 -2 0 0 0 0];

internalField   nonuniform List<scalar> 
918
(
7.62641
15.231
0.00600075
7.61995
-0.00695262
15.2279
-15.1524
13.6316
7.62345
-2.44161
-0.320636
7.94226
14.8759
14.7657
3.997
0.0782806
12.329
-12.3746
6.89791
-0.0287624
16.0192
7.86758
7.58935
7.11131
9.2843
16.1411
14.7204
-0.0305753
0.00412086
-0.0168276
-0.00560142
0.0237648
0.0720092
14.9696
15.1242
15.1714
7.21259
5.4581
-11.7919
-13.7564
-10.6574
-15.2831
13.3442
13.6287
-9.04904
13.7876
14.0761
7.30009
7.57662
7.60844
7.67921
7.63744
7.68101
2.58157
-2.87151
-3.92949
-1.94078
-1.6058
0.346949
-0.456946
-0.471867
-0.273958
-0.354338
6.40466
7.7612
7.81881
8.14108
8.15365
15.1395
15.1527
15.1789
15.0224
15.0035
14.8905
15.0584
14.7513
14.7973
14.8076
15.1002
1.71653
-3.15513
7.02251
8.40279
0.0122894
0.0734627
0.195751
11.9894
12.1192
12.2901
12.6795
7.24322
-11.1186
-15.1121
7.38469
7.27421
7.67882
7.58613
7.13156
7.2966
-0.15956
-0.129233
-0.00431815
0.0187079
-0.13566
15.4721
15.2112
6.69964
6.92825
8.43053
8.71391
8.62554
2.75593
9.75982
10.5125
13.7622
15.1623
15.5855
15.2012
14.858
14.7167
14.9832
15.0607
0.0753414
0.0527008
-0.00649311
-0.0270911
0.00185453
7.05252
6.96847
7.47702
7.269
7.15749
4.92538
3.80647
5.91394
6.69292
-10.0197
-11.2948
-12.1336
-11.7153
-15.6749
8.66423
12.9896
13.1383
-7.79204
-6.51193
-9.19571
-6.28079
-7.5912
7.26808
7.26211
7.27871
6.98551
7.18782
7.29323
7.64746
7.60778
7.60343
2.6577
3.4713
2.11951
1.59087
-7.61836
-4.40724
-7.20723
-1.19507
-1.06831
0.365474
0.519493
0.297373
0.120969
-0.842861
-0.556577
-0.585584
-0.190528
-0.17602
6.19951
5.84782
6.43483
6.73478
7.49287
7.54034
7.60127
7.49265
15.1788
14.9328
14.785
14.8476
-8.1508
-20.8952
10.3653
11.2156
0.0928048
0.0711609
0.0248066
-0.054201
0.02852
-0.00422598
0.256836
0.323933
0.0193425
-0.0661968
11.4901
11.6987
7.13948
7.75339
6.37627
6.40137
7.28934
7.29052
7.32543
7.19335
-0.174339
-0.232401
-0.256003
14.0741
14.6998
14.6365
1.82022
-0.366317
3.82932
4.30758
11.1833
10.7841
11.118
13.976
14.2647
15.2068
14.9382
15.1542
15.0366
14.8937
14.9962
15.0077
6.7996
6.92465
6.78634
7.43176
7.34904
7.35566
7.47626
7.36678
7.46839
3.24761
1.98335
8.28446
7.69601
6.99232
7.65184
8.24201
8.67944
12.5136
12.8932
12.9358
-4.49772
-5.9929
1.5837
1.24021
4.93603
5.62044
5.28727
14.8471
14.76
14.7386
14.7097
14.7446
14.8573
2.2395
-3.90859
-0.742156
13.3404
12.1435
12.7727
0.195195
0.119542
0.15136
7.4392
8.24439
3.87621
5.17761
5.08074
14.4905
14.5823
14.7004
14.4643
14.4674
14.7253
14.6756
8.21392
8.09798
8.58551
8.27869
8.62129
-1.51343
-3.03104
-3.79766
0.758124
0.9698
0.947995
7.91894
8.05226
8.4717
6.71488
7.17342
0.0979733
0.134912
7.62649
7.44732
-0.0101052
-0.0135501
12.4464
4.71681
0.0421513
7.33815
7.25167
7.50264
-2.13697
2.10713
-0.384744
0.494147
0.28217
7.64377
6.54468
5.91775
0.167004
-0.0972694
-0.210742
-5.55078
7.08706
7.08982
7.49052
7.43504
7.58429
0.0334529
0.0788451
0.127156
-0.21478
0.0495559
0.201056
7.08949
7.23392
-4.94791
7.36032
7.45586
7.51461
7.31243
7.46274
7.44778
0.0113711
0.00426685
-0.0391914
1.83332
4.46908
14.7325
16.2661
13.5934
12.2683
10.7477
13.6423
14.4044
13.4253
15.0093
12.2024
13.3591
1.50549
-1.76223
0.843192
-0.0232174
7.26355
7.27535
7.09971
7.32176
7.24459
7.48126
7.1997
7.40618
7.28574
7.2333
-1.30122
-1.71918
-2.26552
-2.90293
2.4548
3.49583
1.553
1.94748
0.865772
-0.288321
-0.137059
-0.320144
-0.451349
0.210741
0.338849
0.286684
0.37669
0.00817255
0.057997
0.217845
0.0253211
0.0913801
7.59989
7.43938
7.65067
8.03827
6.6626
6.69935
6.27066
6.57046
6.29838
5.46955
5.64085
5.27641
0.0904159
0.122197
0.0814477
0.106995
-0.0559785
-0.0356788
-0.0676999
-0.5224
-0.223523
-0.0166964
-0.183259
-0.198972
-4.76479
-6.57682
6.50991
5.61567
2.83571
7.48542
7.38192
7.17066
6.88245
7.32613
7.64733
7.54127
7.14758
7.32076
7.29489
7.35114
7.46205
-3.79342
-5.56569
-3.643
-5.1593
5.38271
10.5844
4.27375
4.18228
3.16485
7.97144
12.393
13.9829
16.6303
16.2755
7.0571
9.48002
7.88489
10.0691
8.79686
14.134
14.6904
15.0972
14.8219
14.1413
3.7678
8.6181
-4.03499
-3.01999
0.533442
-1.01135
14.8317
12.0026
12.2957
13.115
13.5055
12.1307
11.7728
11.7042
12.7933
12.8149
7.90679
2.33229
2.00244
0.875238
11.7622
8.93229
10.3519
7.96945
7.36001
7.27973
7.42491
7.34798
7.32104
7.35085
7.32247
7.35062
7.39249
7.29617
7.3416
7.3756
-1.32773
-1.0732
-1.90128
-3.67398
-3.21828
-4.5548
-2.39435
0.225042
-0.629091
2.0768
3.32037
-0.0512276
-2.39452
-1.73694
-1.0815
0.773638
0.285219
0.452956
1.11765
1.32781
0.898838
1.66096
1.52681
-0.126092
0.0709902
-0.296628
-0.251405
0.575188
0.605632
0.779478
0.163808
0.278658
-0.200817
-0.120234
0.233875
0.0890812
0.271115
0.000125537
-0.0212903
0.0561419
0.125593
-0.0862185
0.440512
0.0206832
7.30073
7.43789
7.47048
7.77532
8.05823
8.58069
7.83609
6.99501
6.76333
6.94426
6.58212
6.91315
6.74778
7.08159
7.20543
7.47104
7.30141
7.36167
7.20672
7.04419
7.09897
7.17326
6.46513
6.00196
6.09378
0.137065
-0.00150624
0.0469939
0.143879
0.0744471
0.0677066
0.188519
0.217754
0.392373
0.0510784
0.371855
-0.37597
-0.0645591
-2.51966
-0.778446
-5.09658
-5.35337
-6.47642
6.39083
7.09802
5.47185
4.5135
4.76151
5.76405
6.19221
3.73526
4.61429
4.41495
7.54522
7.40095
6.6352
6.73837
7.21492
7.04964
7.00979
-2.02544
0.340895
-0.0823419
1.39564
5.58335
5.89002
4.15189
3.96177
5.10454
4.85912
10.3304
10.816
9.27156
10.1166
10.2806
6.18061
8.14197
9.37603
7.95646
8.82452
9.48353
8.60987
9.22763
8.20211
7.59054
7.43084
5.88527
6.58456
6.13743
5.93275
7.35547
7.14928
7.11422
7.10871
7.69236
8.63401
8.35357
8.57379
8.9311
7.24138
6.64228
6.7822
7.17554
6.50406
6.5345
6.80957
3.31696
4.34778
4.684
3.71321
4.70582
3.71289
3.92075
3.73013
4.60198
2.76687
2.94073
1.11684
7.14748
13.1267
14.3063
14.6924
13.5226
13.1349
13.1525
14.1093
14.1414
11.4798
11.8096
11.9686
10.8996
11.5062
12.4474
12.3203
7.96757
6.29082
5.53663
5.035
1.95385
2.42445
6.87483
5.43073
3.83234
3.81928
7.0833
4.04487
5.39661
7.22338
6.50283
5.16172
8.86538
10.723
10.2266
9.51517
7.8528
8.35339
8.83158
9.96231
10.6293
11.191
7.12022
7.31861
7.30643
7.2418
7.23452
7.26448
7.25591
7.34694
7.30322
7.5336
7.4757
-0.473928
-0.370591
-0.786813
-0.789284
-0.131681
-0.591105
-1.38512
-1.3471
-0.127424
-0.243272
-0.608591
-1.0876
-0.614352
-0.257095
1.1378
1.32883
1.29293
0.533628
1.9792
2.995
3.48587
2.8863
1.56281
1.83777
2.21582
0.284182
0.392328
0.262487
0.469901
0.444012
-0.45392
-0.462213
-0.409861
-0.00592011
-0.242845
-0.445699
-0.161265
-0.107962
-0.238034
-0.188047
-0.202157
7.16259
6.80546
6.35611
6.37234
6.32216
6.81845
7.12609
7.14523
7.30842
7.32421
7.18412
7.3754
7.41461
-0.244358
-0.127633
-0.352205
-0.0367762
0.0503335
-0.135519
-0.0389671
2.62896
0.798208
2.04602
-0.291842
-3.60623
-2.14263
5.82179
7.05674
7.49408
7.08105
6.27885
6.32041
7.13731
7.4753
4.18091
5.47187
4.57959
6.97858
6.87988
7.36522
5.66824
2.86295
5.23928
5.91938
3.50816
4.43606
3.93161
1.68157
2.04065
3.21989
5.00618
5.22643
4.6804
4.41034
4.40024
5.62276
5.51962
6.11439
6.73712
3.44048
2.70252
1.36671
10.4001
10.8969
11.4594
10.6433
11.3831
9.18538
9.21877
9.39609
9.75809
9.39649
2.36096
2.48693
1.36778
4.4707
5.42836
7.3781
6.18643
10.8792
10.3286
12.3584
12.4014
11.6918
10.7189
10.3935
11.5197
5.00133
7.60246
7.07756
6.96601
4.76918
2.5772
10.1374
9.84872
10.7546
11.3246
10.5919
11.2782
7.05802
7.04594
7.13515
7.10467
6.89099
6.81712
0.558923
0.261161
0.670576
0.237532
-0.212405
0.19054
-0.306997
-0.596115
-0.206333
0.0382408
-0.111296
0.0642684
2.9724
2.9143
0.396349
1.82975
-1.50266
-2.40568
-3.16436
-0.254395
1.41505
0.674977
4.58812
5.89219
5.06928
5.48691
4.26327
4.65157
7.07765
6.71789
7.28658
6.16565
6.13875
5.91096
3.23662
4.47067
10.7266
10.0098
8.72441
7.79406
7.13923
9.07478
8.49736
7.37888
8.27603
9.46464
9.5422
4.04913
4.33992
5.00388
5.73909
4.67223
5.02239
4.7263
5.26239
5.0261
)
;

boundaryField
{
    wall-4
    {
        type            zeroGradient;
    }
    velocity-inlet-5
    {
        type            zeroGradient;
    }
    velocity-inlet-6
    {
        type            zeroGradient;
    }
    pressure-outlet-7
    {
        type            fixedValue;
        value           uniform 0;
    }
    wall-8
    {
        type            zeroGradient;
    }
    frontAndBackPlanes
    {
        type            empty;
    }
}


// ************************************************************************* //
