/*--------------------------------*- C++ -*----------------------------------*\
| =========                 |                                                 |
| \\      /  F ield         | OpenFOAM: The Open Source CFD Toolbox           |
|  \\    /   O peration     | Version:  4.0                                   |
|   \\  /    A nd           | Web:      www.OpenFOAM.org                      |
|    \\/     M anipulation  |                                                 |
\*---------------------------------------------------------------------------*/
FoamFile
{
    version     2.0;
    format      ascii;
    class       volScalarField;
    location    "4";
    object      p;
}
// * * * * * * * * * * * * * * * * * * * * * * * * * * * * * * * * * * * * * //

dimensions      [0 2 -2 0 0 0 0];

internalField   nonuniform List<scalar> 
918
(
7.88655
16.502
0.0227132
7.90744
-0.000296978
16.4541
-14.2665
14.4084
7.7948
-2.42986
-0.22428
8.45912
16.2084
15.941
4.96043
0.0891255
13.1072
-10.4108
7.80513
0.0271752
16.8826
7.82456
7.83625
7.78693
10.2016
16.9866
16.0062
0.0165747
-0.0224164
-0.0361753
0.00768837
0.00204595
0.0317957
16.2573
16.3446
16.382
7.53923
6.37441
-11.2725
-12.9307
-10.5007
-14.5104
13.8608
14.1503
-7.57706
14.2744
14.6696
7.697
7.79397
7.80078
7.79856
7.79551
7.80213
2.76723
-2.70416
-3.58836
-1.83115
-1.57488
0.575941
-0.276421
-0.42128
-0.141682
-0.0926218
6.88348
8.33385
8.2422
8.58403
8.85452
16.4015
16.3573
16.4001
16.2519
16.2821
16.1689
16.1211
15.9213
15.9359
15.9537
16.0713
2.60405
-2.70895
7.97869
9.54285
0.0119542
0.118588
0.134792
12.6103
12.7491
12.8744
13.2721
7.83497
-9.88594
-13.564
7.81074
7.80848
7.83958
7.84729
7.82251
7.82278
0.000630284
0.0155958
-0.0452683
0.00485569
-0.0114247
16.22
15.9693
7.78368
7.76747
9.0735
9.71197
9.37614
3.32436
10.5524
11.3245
14.7988
16.1672
16.5163
16.3775
15.9592
15.8729
16.0711
16.1081
0.0304235
0.00375124
0.062292
0.0523564
0.0429948
7.49394
7.42702
7.81527
7.57313
7.60609
5.78309
4.89183
6.87579
7.2987
-8.92467
-10.9262
-11.2799
-11.3109
-14.6709
8.42772
13.6833
13.7626
-7.32913
-5.31128
-8.80946
-4.87545
-6.44592
7.64225
7.69118
7.66254
7.7535
7.70934
7.72927
7.82367
7.80459
7.81489
3.08753
4.04985
2.26809
2.03465
-6.57958
-3.8971
-6.23145
-1.17714
-1.05061
0.664991
0.722198
0.473381
0.414002
-0.775339
-0.469435
-0.662641
-0.0582692
-0.0305868
6.74316
6.51643
7.0329
7.12928
7.92902
7.99569
8.13897
8.04035
16.046
16.0731
16.0855
16.0436
-8.35004
-22.271
11.4734
12.3627
0.00749782
0.0158686
0.00580666
0.00700926
0.0216772
0.00708454
0.239453
0.215455
0.157649
0.181671
12.268
12.4882
7.71073
8.32619
7.06374
7.06316
7.78693
7.78494
7.79848
7.7859
0.00810518
0.0325139
0.0521739
14.8301
15.4271
15.3994
2.43775
0.201588
4.43862
5.01959
12.0189
11.5682
12.0137
15.1711
15.3353
16.1083
16.1484
16.1466
16.1695
16.247
16.2805
16.2143
7.21859
7.36086
7.28589
7.78887
7.80502
7.79714
7.89077
7.82515
7.8509
4.25984
2.96213
8.16418
7.91784
7.5117
7.83269
8.28165
8.54742
13.1367
13.3055
13.4635
-3.31954
-4.68572
1.71365
1.50787
5.65223
6.29414
5.95699
16.0035
15.9505
16.0097
15.9773
15.9454
15.9697
3.06573
-3.98526
-0.385495
14.491
13.3349
13.8997
0.345238
0.255216
0.305114
8.07678
8.58416
4.30788
5.9287
5.63292
15.6562
15.8037
15.814
15.5541
15.6742
15.8956
15.8947
8.2572
8.13019
8.41032
8.33371
8.60926
-0.620053
-2.37725
-3.05172
0.845731
1.25069
1.06269
8.33868
8.36792
8.6413
7.77425
7.78008
0.0599383
0.114585
7.81684
7.81824
0.0239479
0.0478492
13.6006
6.0584
0.548767
7.78283
7.67222
7.78726
-1.85376
2.65926
-0.200939
0.600081
0.338879
8.2651
7.09088
6.42636
0.0398164
0.103196
0.0447707
-5.12192
7.76125
7.75095
7.78188
7.78273
7.78885
0.0439753
0.049382
0.0390114
0.0585093
0.0555662
0.0455367
7.50162
7.84386
-4.39735
7.78801
7.80343
7.79921
7.78483
7.80387
7.7999
0.0826869
0.0573531
0.0603232
2.29129
4.82574
15.7473
17.1561
14.6985
13.2982
11.7866
14.7316
15.3796
14.4367
15.8871
13.0836
13.549
1.61831
-1.33626
2.06294
0.563878
7.7724
7.77586
7.65771
7.63564
7.76432
7.75945
7.77894
7.7751
7.78883
7.79078
-1.09227
-1.40451
-2.17393
-3.08691
2.90875
3.8164
2.02245
2.0085
1.1247
-0.126281
-0.117736
-0.21429
-0.3218
0.306396
0.3636
0.474771
0.455026
0.271332
0.265861
0.251262
0.303422
0.339718
8.10739
8.0597
8.29016
8.47806
7.22988
7.25117
6.76198
7.0672
6.85454
5.63109
6.37063
5.89906
0.0352385
0.0476715
0.0389719
0.115913
0.15711
0.052136
0.0509963
0.0523777
0.0411778
0.0440548
0.0439033
0.0622582
-4.54697
-6.42851
7.2687
6.15538
2.83697
7.69073
7.72912
7.70031
7.75735
7.77057
7.7698
7.75558
7.73589
7.81895
7.80489
7.83821
7.88617
-2.97062
-5.99693
-2.74047
-4.28009
6.19517
11.4967
5.13271
4.01978
3.71649
8.6739
13.5309
15.1031
17.4905
17.1261
8.25371
10.5462
8.93965
11.0013
9.73284
15.3679
15.7427
15.9723
15.7245
15.2544
4.42236
8.88236
-3.10197
-2.28497
1.39837
-0.577517
15.2515
12.6508
12.6886
13.4759
14.1906
12.8067
12.3779
12.3379
12.9622
13.0514
8.38521
3.14539
2.37722
1.29155
12.2559
9.40026
10.7143
8.79272
7.78301
7.77026
7.7778
7.54928
7.61218
7.56223
7.70172
7.7599
7.74897
7.76117
7.72026
7.72965
-1.08533
-0.947063
-1.62222
-3.15929
-3.20531
-4.21203
-2.3992
0.61763
0.30498
2.65172
3.75548
-0.0917261
-1.83043
-1.6761
-0.28099
1.19676
1.30772
0.722912
1.30958
1.40881
1.13938
1.69297
1.64152
0.0181448
0.169677
-0.120814
-0.1176
0.610113
0.812734
0.807184
0.19539
0.190231
-0.0437432
-0.0125825
0.363477
0.0737818
0.304052
0.108148
0.087091
0.109489
0.137661
0.120715
0.174157
0.187702
7.89754
7.95273
7.95897
8.45458
8.64777
8.99129
8.43659
7.50985
7.38621
7.4052
7.06623
7.20452
7.17859
7.44143
7.81469
7.94587
7.69409
7.77016
7.6378
7.62493
7.3998
7.50643
7.11415
6.75222
6.56668
0.0733001
0.0497723
0.0589418
0.0690424
0.04563
0.0578118
0.216233
0.161458
0.164525
0.175421
0.224245
0.0550227
0.0595483
-2.36859
-0.514813
-5.16293
-5.42206
-7.05137
7.01481
7.89328
6.03319
4.89308
5.15125
6.47964
6.97822
4.14992
5.21885
5.23313
8.00368
7.7803
7.7375
7.72963
7.71343
7.71245
7.72574
-1.1609
0.765483
0.21541
1.60491
6.3411
6.89276
4.09729
4.40982
5.21228
5.01922
11.3545
11.7654
10.315
10.9573
11.0012
6.76292
8.62668
9.88768
8.75513
9.85503
10.508
9.46702
10.3267
8.8146
7.90498
7.85559
6.47103
7.226
6.7176
6.18022
8.11692
7.67907
7.86835
7.78165
8.16464
9.11335
8.90989
9.20384
9.65109
7.99921
7.09418
7.41669
7.96529
7.04743
7.30298
7.66617
3.93358
4.6542
5.17498
4.3899
5.57725
4.91068
5.03805
4.53842
5.17532
3.43386
3.49731
1.35202
7.46372
13.7171
14.8514
15.3686
14.1711
13.6
13.7991
14.5982
14.7177
12.1442
12.3268
12.6104
11.4055
12.157
12.7229
12.7584
8.21462
6.21702
6.11913
5.03786
2.08573
2.9497
7.08606
5.56825
3.87706
3.73313
7.61944
4.95804
6.42468
7.72212
6.41844
5.01625
9.91012
11.3735
11.0932
10.4868
8.42674
8.77903
9.21834
10.0463
10.7735
11.554
7.64593
7.7008
7.69253
7.66643
7.67738
7.71656
7.74255
7.76067
7.73096
7.75484
7.76277
-0.380058
-0.302853
-0.722747
-0.57085
-0.199196
-0.521192
-0.243102
-0.608186
-0.217733
-0.208759
-0.463207
-0.825014
-0.676898
-0.420485
1.26326
1.59849
1.49652
0.835461
2.2312
3.4196
4.00267
3.33854
1.80091
2.13181
2.63682
0.484209
0.556432
0.468447
0.616832
0.576828
-0.0623123
-0.0264399
0.0562006
0.105906
0.0180753
0.0732499
0.0448122
0.0380473
0.0414322
0.022629
0.0383299
7.53735
7.46297
7.53127
7.44078
7.40098
7.60135
7.63696
7.7145
7.77908
7.84228
7.72724
7.85463
7.8802
0.109151
0.0636063
0.0794959
0.029907
0.0638545
0.0500256
0.0328007
2.67146
0.590914
1.75361
0.0585128
-3.16849
-1.82399
6.11807
7.49844
7.92951
7.36358
6.23319
6.41556
7.57374
7.96459
4.10432
5.26931
4.55922
7.40484
7.1851
7.93056
5.52104
3.42244
5.67786
6.12653
4.1809
5.04433
4.75975
2.44502
3.0525
3.85815
5.28583
5.5907
5.10719
4.77008
4.6305
5.80609
5.46986
6.74983
7.38843
3.45108
3.10691
1.93892
11.221
11.6913
12.0341
11.3436
11.8661
9.93254
9.81751
10.235
10.5051
10.2053
2.92047
3.32408
2.21864
5.98745
6.87863
7.8411
6.75264
11.8414
10.7426
13.3407
13.14
11.7728
10.8101
10.811
11.9215
5.04195
7.7177
6.91044
7.36373
5.57928
3.84349
10.4588
10.4416
11.2102
11.7961
11.0588
11.7431
7.64205
7.66182
7.62712
7.58978
7.59735
7.63917
0.517619
0.145058
0.70782
0.427022
0.0409651
-0.00986464
0.0921911
0.0850964
0.0499355
0.070527
0.0986231
0.130695
3.16278
3.37154
0.891788
2.16889
-0.9805
-2.04511
-2.86328
0.110896
1.62538
1.12236
4.50315
5.80589
4.87833
5.58345
4.35935
4.90176
7.50356
7.1607
7.81034
6.19071
6.3299
6.56973
4.24947
5.5416
11.3955
10.7827
8.98177
8.20272
8.32985
10.0524
8.75736
7.75495
8.56479
9.80875
9.70638
4.90977
4.93692
5.78532
6.38974
4.92443
5.30557
5.05141
5.70031
5.32929
)
;

boundaryField
{
    wall-4
    {
        type            zeroGradient;
    }
    velocity-inlet-5
    {
        type            zeroGradient;
    }
    velocity-inlet-6
    {
        type            zeroGradient;
    }
    pressure-outlet-7
    {
        type            fixedValue;
        value           uniform 0;
    }
    wall-8
    {
        type            zeroGradient;
    }
    frontAndBackPlanes
    {
        type            empty;
    }
}


// ************************************************************************* //
