/*--------------------------------*- C++ -*----------------------------------*\
| =========                 |                                                 |
| \\      /  F ield         | OpenFOAM: The Open Source CFD Toolbox           |
|  \\    /   O peration     | Version:  4.0                                   |
|   \\  /    A nd           | Web:      www.OpenFOAM.org                      |
|    \\/     M anipulation  |                                                 |
\*---------------------------------------------------------------------------*/
FoamFile
{
    version     2.0;
    format      ascii;
    class       surfaceScalarField;
    location    "4";
    object      phi;
}
// * * * * * * * * * * * * * * * * * * * * * * * * * * * * * * * * * * * * * //

dimensions      [0 3 -1 0 0 0 0];

internalField   nonuniform List<scalar> 
1300
(
18.7548
9.37738
-22.9804
18.7548
-22.7396
9.37738
-22.5652
22.5652
-7.84461
7.84461
9.3779
9.37687
-17.579
17.579
-17.7952
17.7952
-14.9331
14.9331
-8.79071
8.79071
-8.57518
8.57518
9.24541
-9.24541
-18.7569
18.7569
-10.4423
10.4423
-20.3203
20.3203
16.1629
-16.1629
-19.1975
19.1975
-3.88696
3.88696
-2.56376
21.3185
16.191
16.191
-13.7154
13.7154
-7.79161
7.79161
10.4406
-10.4406
34.5626
-34.5626
-11.5822
-11.9422
4.80299
-28.6048
-17.9366
-17.9366
-14.0675
14.0675
-4.6901
4.68729
15.9801
-15.9801
-6.95921
6.95921
-22.8725
0.307288
-22.8725
22.4876
0.0775668
22.4876
-8.51349
0.668887
-8.51349
20.8306
-20.8306
7.03817
0.806438
7.03817
16.0639
-16.0639
-9.37971
18.7576
9.37506
-9.37418
30.6927
-9.38058
18.7575
-17.965
17.965
-18.1113
0.532307
-18.1113
17.3379
0.241119
17.3379
-19.6853
19.6853
-17.5828
-0.212467
-17.5828
18.0759
-0.280695
18.0759
16.1346
-16.1346
-15.1302
0.197154
-15.1302
14.6867
0.246369
14.6867
0.560954
8.81643
-9.93834
14.6256
-8.81643
0.0257156
8.7561
0.0346185
8.7561
-8.64179
0.06661
-8.64179
8.45016
0.125018
8.45016
9.9193
-0.673882
9.9193
-9.12568
-0.119738
-9.12568
-11.6685
-11.8783
-19.1136
0.356687
-19.1136
-10.5335
0.0912722
-10.5335
10.3585
0.0837679
10.3585
-12.94
12.94
-21.7688
1.44849
-21.7688
16.1145
0.0483668
16.1145
9.36843
9.38634
28.1232
-28.1232
11.9603
-18.9728
-0.22472
-18.9728
-19.3687
-15.1939
19.3687
-0.171174
-5.03746
1.1505
-5.03746
16.1534
0.0375564
16.1534
14.3366
0.350111
-14.3366
0.621136
18.0699
-18.0699
10.4683
3.24718
10.4683
-9.61951
9.61951
8.24449
0.205671
-8.24449
0.452877
10.3648
0.0758289
10.3648
-10.3909
-0.049704
-10.3909
11.8295
-23.7718
-11.9406
18.3608
0.396063
-18.3608
0.42419
15.968
0.0120866
15.968
-15.8394
15.8394
-16.0095
0.0294243
-16.0095
-7.15218
0.19297
-7.15218
6.91637
0.0428436
6.91637
-22.1608
-0.711711
-22.1608
-22.3145
0.545644
22.3145
0.173163
7.87919
-7.87919
-9.32082
0.80733
-9.32082
-21.5688
-0.591962
21.5688
-0.73821
-20.8623
0.0317379
-20.8623
-16.0374
0.0279119
16.0374
0.0264093
16.1077
0.0457858
-16.1077
0.0438046
-9.37132
18.7577
-9.38344
18.7585
-16.9974
-0.967609
-16.9974
18.6266
-0.661557
18.6266
19.0821
1.23824
-19.0821
0.970796
17.2992
0.038613
17.2992
-19.6177
-0.0675356
-19.6177
19.7297
-0.0444398
19.7297
17.4117
-0.112451
-17.4117
-0.171056
18.3967
-0.320776
18.3967
16.3459
-0.21129
16.3459
-15.9873
-0.147291
-15.9873
15.562
-15.562
15.345
0.217088
-15.345
0.214755
-18.3968
18.3471
-0.0342212
-18.3626
8.72187
8.72187
9.62975
0.289549
9.62975
-9.09185
-0.0338281
-9.09185
11.6955
-23.6361
11.8961
-23.5647
11.8727
-40.4776
11.72
-23.5984
19.6046
-19.6046
19.4012
0.203437
-19.4011
0.28758
-10.501
-0.0324958
-10.501
-11.7953
-1.14463
-11.7953
14.2721
-1.3321
14.2721
-15.9973
15.9973
-16.0591
0.0618719
16.0591
0.0553956
18.7036
-0.306901
-18.7036
-0.269228
6.06521
0.972959
-6.06521
1.02775
19.1373
-1.06745
19.1373
-17.1723
-0.897522
-17.1723
-10.4717
-0.0292884
10.4717
-0.00349254
-9.92722
0.307709
-9.92722
-18.5356
0.173027
-18.501
-10.2179
-10.2179
3.84963
18.4753
-15.9524
-0.0348908
15.9524
0.0156402
15.928
0.0692897
-15.928
0.0885749
-15.7268
0.164791
15.7268
0.112555
-7.38246
0.23028
-7.38246
-7.19831
7.19831
-7.00454
-0.193765
7.00454
-0.0881726
8.39452
-0.515328
8.39452
9.82284
0.535646
-9.82284
0.50202
-20.3542
-0.508165
-20.3542
19.1456
-0.518985
19.1456
-16.6613
-0.511067
16.6613
-0.315413
-0.0361822
18.3833
-8.68569
0.0439042
8.68569
-18.4591
18.503
-8.21079
0.828332
8.21079
1.41895
9.33754
0.281966
-9.33754
0.245693
19.7096
0.020132
-19.7096
0.105002
-10.7242
-1.07113
-10.7242
-15.6593
-1.33808
15.6593
-1.38728
-18.875
-0.257199
19.1322
-18.7499
10.1844
0.180339
-10.1844
18.6833
-7.48846
-0.39073
7.48846
-0.290153
9.07062
-0.676099
9.07062
20.0899
-0.952601
-20.0899
-0.26425
-19.4669
-0.150828
19.4669
-0.321358
-9.84261
-0.881586
9.84261
-0.77199
-21.2851
21.3226
9.40766
-11.7767
-11.9951
-26.9706
9.35158
9.40608
21.3119
-25.0204
-15.4572
-24.5962
12.3673
-12.1216
-17.5463
16.8724
36.4261
-36.3943
-28.6648
28.7202
31.8155
-31.789
9.39075
9.36686
38.4787
-37.9464
-37.6212
36.6536
36.5251
-36.7376
38.3283
-38.3959
-44.0433
44.0635
-28.2421
28.4393
-32.2902
32.1429
-33.1387
32.8233
-11.565
-11.9997
32.2064
-31.8497
41.3352
-41.5599
-40.6326
42.0811
16.8637
4.45886
16.9095
-9.38147
18.7722
-9.37598
18.7836
11.9177
-23.4827
11.7184
-23.7134
21.3912
19.944
-21.2201
-5.7505
-28.8127
28.8248
-28.5801
28.6926
42.6763
-42.369
-9.39084
18.7577
-9.36766
18.7737
-16.8873
-11.7775
16.8389
4.47297
19.7496
12.4567
-20.1457
-4.4505
-37.2317
36.2791
-38.8468
37.9493
-1.38139
9.6402
-8.25881
6.41022
-1.98137
11.6216
10.3859
10.3521
9.70314
-9.42118
2.41843
-10.6772
-10.2244
-12.9924
13.7997
13.3082
-12.5017
28.532
7.89408
27.7938
-26.4248
-9.96955
-26.9329
18.929
9.79117
18.9909
20.1068
11.7087
20.1347
15.068
-15.1021
0.0341103
-15.1248
30.1928
3.65563
-26.9023
-22.4294
24.8137
13.6649
25.0549
-26.4287
-11.5177
-25.4579
-22.4783
-15.1429
-23.8164
23.9869
12.6668
23.3253
-28.5993
28.278
24.3133
12.2118
24.0326
-24.2394
-12.4982
-24.4105
37.0879
-9.53376
-27.5541
-24.6981
-19.3453
24.7425
13.5858
26.7855
17.2779
26.8905
12.6457
24.4422
-26.2315
6.88621
-18.948
-9.29409
-18.7333
18.3697
10.0696
18.616
-20.1824
-12.1077
-20.2173
-20.4452
-12.6935
20.6565
11.4864
-20.9513
-17.8955
21.4624
11.3609
10.855
-26.3122
12.7433
-24.7431
-22.4276
-9.42204
-22.1401
14.5324
9.2087
-23.7411
-8.95028
38.4142
-18.4702
32.6637
-25.7592
-15.8008
-26.0284
-32.121
-8.51164
-31.5753
-21.3894
20.3183
-21.5589
20.2268
36.9706
-20.0993
-16.8713
-19.5294
-12.2596
19.4856
-2.57611
-18.4419
18.476
0.330301
19.1139
23.5728
20.9967
-18.9829
-9.59714
-18.8943
18.8059
9.8867
18.9707
32.031
10.6453
32.1086
-30.5203
-11.8487
-31.2321
19.9864
-19.7934
14.7656
-14.7949
25.2468
12.7025
-24.1794
-13.0523
29.3793
-14.6489
-14.7304
-20.2577
19.6678
0.589908
-8.63615
-2.22593
1.66103
-9.99546
-7.5508
10.1152
0.236871
19.9047
12.3539
-9.11641
9.42412
10.0157
10.2214
-0.00294436
12.747
-11.9186
26.3655
-12.0049
-14.3607
25.4411
-26.0331
-5.79094
-25.7887
19.9978
1.76068
8.9369
-7.78641
-10.4358
-2.55654
-9.93381
8.08898
5.21918
9.06194
4.86805
8.93165
-14.5841
2.90118
11.6829
-9.71602
-9.60054
-17.2553
-4.93585
22.1911
26.2105
10.0685
-25.9463
-0.986671
13.6071
-13.5233
-3.43313
-13.8221
10.5835
-14.0167
-16.948
-9.16594
26.114
-16.4927
-2.40163
16.4234
2.56749
-18.6228
-10.1899
18.5934
1.5413
-15.2651
30.3928
-15.1276
-24.8623
12.6067
17.5861
22.3978
-23.6898
12.0619
11.6278
-6.10365
21.4035
3.6514
21.4421
-32.9114
21.3937
27.7321
14.349
-28.9703
3.51241
-29.399
33.7938
-29.5263
-4.26748
17.4092
16.3846
18.7949
18.1757
-13.7681
32.5629
-4.46099
-25.0653
33.86
-19.5109
20.3978
-39.9088
-38.5736
13.5083
-24.756
30.4675
-5.71153
-8.80895
-19.7904
33.565
-3.01595
-30.549
20.3094
-19.0091
-19.1168
38.1258
-28.5428
31.6149
-9.4328
-22.1821
-24.0358
-14.36
24.1866
4.09131
-35.3498
42.236
-10.9076
21.0901
2.94253
20.7693
13.7218
-21.0771
7.35529
14.821
-24.2538
8.95563
-30.0327
-17.3137
33.8403
-16.5266
-26.7358
-23.8777
-2.85806
7.25833
34.9777
-24.5363
18.9238
5.61245
16.2681
2.70265
-16.4851
-2.24813
1.79406
21.8372
-23.6312
20.4101
20.7602
16.5563
5.28089
18.5989
10.2259
-18.6145
-1.60279
-19.9088
7.21524
-8.42238
-17.5425
24.7577
-19.6483
2.10587
-13.0759
-17.2417
30.3177
-22.37
15.0267
15.366
24.9134
-23.98
6.73825
-11.855
-12.125
12.9101
-21.3325
9.38783
15.3699
20.7488
2.85323
17.2114
16.6289
-26.4201
1.67706
29.0856
-24.6351
5.96164
20.9289
-24.8854
1.00772
-21.1323
3.87258
-22.3428
-19.8685
22.8041
-31.3157
-17.1047
29.2216
2.88703
-29.3947
-2.18057
-14.8884
-6.50104
-15.77
-6.73024
-14.8286
-20.4983
-4.34504
-16.1533
15.9733
-15.7823
-8.03411
17.1696
3.05719
-17.9051
17.5143
-18.2677
17.5916
0.521969
17.9541
21.5187
9.25906
-11.8504
21.1095
-22.8231
33.4684
-39.2757
16.4526
19.3072
-31.1559
-19.9684
12.2611
7.72524
12.304
21.4354
-23.972
2.53665
-23.4213
27.9834
-4.56208
-36.6091
13.1878
-15.1738
13.4546
1.31106
13.4221
3.36245
11.7375
-15.0999
-11.4325
-11.436
-11.0107
-16.2143
27.225
5.51536
-16.1456
10.6302
-16.7799
22.2952
-0.456436
-15.6892
25.4883
-13.7508
26.7994
-17.2363
9.5631
15.6284
26.6999
-11.0714
20.7174
-8.01494
8.54915
-19.6206
-7.66517
-14.6108
24.6804
-15.7069
17.8127
-1.04918
18.8619
-19.4767
4.82785
-2.92047
17.8397
18.4609
20.269
-14.9881
14.082
-22.0969
-5.53862
-19.2437
-3.87381
-0.404232
-18.0869
18.4912
17.814
-18.2182
-9.45394
19.7797
-10.3258
16.2701
-10.118
-6.15212
-9.7033
-10.0901
9.47302
3.27394
19.544
1.39984
-11.5178
-10.5188
-9.09984
15.5323
10.8333
-9.78349
10.3734
8.12246
0.814446
2.99419
6.06775
9.54666
-6.55247
0.690912
8.85575
-7.0955
9.93267
3.67443
-10.4683
0.534499
-6.38475
16.9683
5.29814
-10.5173
3.96484
4.90103
-16.9059
22.7521
-11.8437
-10.9084
27.6531
5.58476
-17.4284
20.204
-18.4433
11.1391
-16.0749
-6.28937
-24.7326
-16.8386
-11.8542
22.4845
-15.3708
25.4393
5.53645
-24.4526
29.9891
-17.3446
8.17863
-14.5038
18.1782
-4.95065
-9.55313
13.4017
12.7123
-14.0038
0.181711
-0.602122
11.3643
-11.9664
-2.65235
-12.3684
-22.4504
23.9917
-10.3678
22.4297
10.7417
-9.32923
31.759
8.99307
-18.3223
-15.8692
-18.2708
-6.69449
15.7033
-3.46353
-20.947
-25.6456
21.0594
0.382639
-32.8872
36.9098
-4.02263
-19.2222
-2.17146
19.5807
-26.8039
2.55009
-17.8483
19.0615
22.7129
23.0956
-30.133
-0.416005
-17.4663
4.21766
-21.6839
20.6022
-9.84894
23.3572
-25.7712
17.7371
-22.714
19.0897
-2.5942
19.712
-12.3567
7.84214
-22.2022
-18.1109
24.9215
-12.7097
27.864
-14.5085
42.3725
-25.4161
24.666
17.7065
-5.10883
-20.9196
-24.2089
19.1001
0.457123
21.2265
24.1179
-13.892
22.5151
10.9251
-22.7801
-10.4074
-31.9071
9.12704
-16.5411
-9.28128
18.4083
15.6321
18.3348
6.28337
-16.0867
23.6767
-26.5347
-7.15009
-12.7184
23.8284
-4.72833
14.3152
-27.0336
-8.02763
17.7251
-1.42649
-16.2986
2.3742
-19.4789
8.11501
-27.5939
23.2007
-25.3813
5.11589
-20.2897
-12.7892
-13.0793
-5.32778
-12.94
-17.2468
11.9191
-4.05904
13.4553
-19.712
18.2855
-8.27145
20.1905
-13.4917
-2.27831
14.2637
3.328
23.5185
1.88872
-21.8572
-10.17
19.9687
-9.79866
5.36224
-16.1982
3.77047
11.4721
16.1809
-31.4699
0.313981
-21.5432
-9.25973
16.985
10.52
28.334
4.36198
18.6865
-1.70153
23.0485
10.6024
10.5143
-14.0894
16.6261
4.40173
20.8544
-4.12674
13.6898
9.29535
9.38662
4.13671
11.2946
7.16629
16.1224
1.02249
-10.4135
8.2891
-17.3889
-3.22872
-17.0994
-0.227015
10.6866
-10.9136
16.1671
-5.33385
6.36847
0.18935
-10.8088
10.6195
-14.1713
-9.99439
-1.13864
-7.89591
11.8608
9.07237
-10.7221
-3.44921
1.60364
-18.4422
14.4713
-14.2896
-1.57733
28.4117
-13.341
1.37452
-5.16233
-10.9938
-13.5504
13.0159
30.362
1.39696
15.2344
25.3886
15.1987
1.30671
15.5536
-21.2651
-14.4791
-21.6811
-1.07889
18.5018
7.2382
27.7395
24.9447
20.2164
-6.81725
-33.352
26.1161
-9.49002
21.554
-5.25545
-22.3384
22.6133
10.855
-25.5004
0.119068
-22.2194
-31.7094
-1.14325
19.4287
-22.3753
20.0969
13.5959
2.55737
-10.7843
-2.29505
10.978
-0.46377
22.5847
-1.29879
-17.0993
18.3981
-9.38783
6.15911
1.41285
8.96055
12.0323
6.69849
-10.4008
-21.3144
-9.05835
-7.84755
-19.9667
2.22439
-11.2968
12.949
-6.7899
6.79689
11.6082
17.9766
-3.74549
-14.4727
14.0713
-7.27439
10.7023
)
;

boundaryField
{
    wall-4
    {
        type            calculated;
        value           uniform 0;
    }
    velocity-inlet-5
    {
        type            calculated;
        value           uniform -18.7548;
    }
    velocity-inlet-6
    {
        type            calculated;
        value           uniform -9.37738;
    }
    pressure-outlet-7
    {
        type            calculated;
        value           nonuniform List<scalar> 8(22.9804 22.7396 23.5244 23.8018 23.5469 23.7701 23.5917 23.5927);
    }
    wall-8
    {
        type            calculated;
        value           uniform 0;
    }
    frontAndBackPlanes
    {
        type            empty;
        value           nonuniform 0();
    }
}


// ************************************************************************* //
