/*--------------------------------*- C++ -*----------------------------------*\
| =========                 |                                                 |
| \\      /  F ield         | OpenFOAM: The Open Source CFD Toolbox           |
|  \\    /   O peration     | Version:  4.0                                   |
|   \\  /    A nd           | Web:      www.OpenFOAM.org                      |
|    \\/     M anipulation  |                                                 |
\*---------------------------------------------------------------------------*/
FoamFile
{
    version     2.0;
    format      ascii;
    class       surfaceScalarField;
    location    "7";
    object      phi;
}
// * * * * * * * * * * * * * * * * * * * * * * * * * * * * * * * * * * * * * //

dimensions      [0 3 -1 0 0 0 0];

internalField   nonuniform List<scalar> 
1300
(
18.7548
9.37738
-21.6651
18.7548
-22.8378
9.37738
-22.2089
22.2089
-7.2523
7.2523
9.37756
9.37721
-16.5549
16.5549
-15.3947
15.3947
-15.0475
15.0475
-8.78889
8.78889
-8.57971
8.57971
9.12055
-9.12055
-18.9908
18.9908
-9.67064
9.67064
-19.7604
19.7604
16.1563
-16.1563
-16.5464
16.5464
-3.41327
3.41327
-2.56399
21.3188
16.1908
16.1908
-13.4741
13.4741
-7.85513
7.85513
10.4367
-10.4367
32.5324
-32.5324
-10.8673
-12.1214
4.75193
-29.0648
-18.0858
-18.0858
-14.0674
14.0674
-4.69002
4.68737
15.9858
-15.9858
-6.97722
6.97722
-22.5642
0.355376
-22.5642
22.0379
0.170908
22.0379
-7.85715
0.604854
-7.85715
20.684
-20.684
6.52993
0.722369
6.52993
16.0661
-16.0661
-9.37977
18.7573
9.375
-9.37501
30.6938
-9.37975
18.757
-17.067
17.067
-17.2517
0.69684
-17.2517
16.0244
0.530461
16.0244
-19.7243
19.7243
-15.3809
-0.0138505
-15.3809
15.5045
-0.109775
15.5045
16.1869
-16.1869
-15.2916
0.244059
-15.2916
14.7123
0.335211
14.7123
0.562309
8.81507
-9.93969
14.6271
-8.81507
0.0261858
8.75247
0.0364211
8.75247
-8.64297
0.0632685
-8.64297
8.46157
0.118136
8.46157
9.78092
-0.660378
9.78092
-9.00475
-0.115798
-9.00475
-11.7022
-12.1996
-19.3395
0.348642
-19.3395
-9.90197
0.231332
-9.90197
9.47909
0.191554
9.47909
-12.1174
12.1174
-21.273
1.51256
-21.273
16.1094
0.0468823
16.1094
9.36914
9.38562
28.1239
-28.1239
11.9676
-16.2291
-0.317325
-16.2291
-16.914
-15.6184
16.914
-0.36766
-4.59926
1.18599
-4.59926
16.1532
0.0375562
16.1532
14.2571
0.455189
-14.2571
0.78299
17.9596
-17.9596
10.1846
3.28958
10.1846
-9.58907
9.58907
8.26984
0.191727
-8.26984
0.414713
10.3639
0.0727915
10.3639
-10.3884
-0.048325
-10.3884
11.8072
-23.9286
-12.1579
18.559
0.43178
-18.559
0.473196
15.9973
-0.0114575
15.9973
-15.8455
15.8455
-16.0069
0.0211121
-16.0069
-7.1349
0.157678
-7.1349
6.96996
0.00726331
6.96996
-21.9733
-0.590896
-21.9733
-21.848
0.575032
21.848
0.189924
8.10615
-8.10615
-8.45267
0.595518
-8.45267
-21.3891
-0.584233
21.3891
-0.705072
-20.7366
0.0526085
-20.7366
-16.0358
0.0288601
16.0358
0.0302908
16.1086
0.0446666
-16.1086
0.0424785
-9.37144
18.7571
-9.38332
18.7583
-16.0162
-1.05074
-16.0162
17.8944
-0.827463
17.8944
18.3988
1.36159
-18.3988
1.14711
15.6951
0.329341
15.6951
-19.4666
-0.257742
-19.4666
19.8466
-0.122233
19.8466
15.4774
0.217687
-15.4774
0.096514
15.6943
-0.189803
15.6943
16.3579
-0.170931
16.3579
-16.065
-0.121915
-16.065
15.6314
-15.6314
15.4853
0.146065
-15.4853
0.193764
-18.4026
18.3543
-0.0339411
-18.3687
8.71853
8.71853
9.51114
0.269783
9.51114
-9.00307
-0.00167452
-9.00307
11.6642
-23.8221
12.154
-23.8562
12.2503
-41.315
11.8079
-24.0075
19.783
-19.783
19.6033
0.179779
-19.6033
0.263802
-9.96736
0.0653898
-9.96736
-11.1751
-0.942243
-11.1751
13.2938
-1.17641
13.2938
-15.9927
15.9927
-16.0547
0.0619311
16.0547
0.0547523
15.9404
-0.246097
-15.9404
-0.288648
5.54508
0.98485
-5.54508
0.945814
18.9705
-1.01091
18.9705
-17.114
-0.845595
-17.114
-10.1447
0.177319
10.1447
0.0398756
-9.91383
0.324758
-9.91383
-18.5401
0.171427
-18.5037
-10.217
-10.217
3.85044
18.4775
-16.0149
-0.05009
16.0149
-0.017662
15.9225
0.070281
-15.9225
0.0769574
-15.7566
0.125191
15.7566
0.088899
-7.34182
0.206919
-7.34182
-7.34818
7.34818
-7.1073
-0.240874
7.1073
-0.137346
8.57344
-0.467298
8.57344
9.00729
0.4718
-9.00729
0.554617
-20.2108
-0.525869
-20.2108
18.5649
-0.670504
18.5649
-16.6372
-0.47672
16.6372
-0.279368
-0.0356499
18.3899
-8.68288
0.0399013
8.68288
-18.4627
18.5026
-8.14145
0.799628
8.14145
1.3697
9.28121
0.307862
-9.28121
0.278135
19.8698
-0.0231846
-19.8698
0.086726
-10.3664
-0.808747
-10.3664
-14.6746
-1.34158
14.6746
-1.38088
-18.8703
-0.263826
19.1341
-18.7522
10.1777
0.186267
-10.1777
18.6889
-7.67855
-0.427595
7.67855
-0.330371
9.14609
-0.572651
9.14609
19.9581
-0.987669
-19.9581
-0.252637
-19.0876
-0.378972
19.0876
-0.522704
-9.70963
-0.656737
9.70963
-0.563534
-21.2844
21.322
9.40932
-11.6432
-12.2854
-27.2616
9.35314
9.40393
21.3207
-25.6586
-15.6564
-25.1854
12.3291
-12.0509
-17.2879
16.6275
36.8765
-36.8239
-28.6739
28.7286
31.8192
-31.7889
9.38876
9.36857
38.2825
-37.5857
-39.5419
38.4911
36.3611
-36.375
40.3629
-40.6207
-46.0671
46.044
-28.025
28.2691
-32.5525
32.4306
-33.3265
33.0471
-11.4832
-12.3729
33.1779
-32.8293
41.5632
-41.8805
-40.3758
41.8884
16.8616
4.46039
16.9063
-9.37997
18.7687
-9.37699
18.7863
12.1865
-23.6698
11.6355
-23.9209
21.6217
19.9415
-21.254
-6.00757
-28.9791
28.9677
-28.6038
28.6927
42.612
-42.2567
-9.39063
18.7592
-9.36769
18.7716
-16.8911
-11.7828
16.8442
4.47657
20.2941
12.8838
-20.7259
-4.45951
-37.4564
36.4688
-38.9725
38.1269
-1.30218
9.62445
-8.32227
6.55295
-2.02732
11.6518
10.3017
10.3001
9.69367
-9.38581
2.35726
-10.6795
-10.2648
-13.1141
13.7097
12.8547
-12.1323
28.6807
8.19586
27.9756
-26.5635
-10.2604
-27.0894
18.941
9.7876
19.003
20.1148
11.7045
20.1436
15.0697
-15.1013
0.0315944
-15.1233
30.193
3.65791
-26.9061
-22.4295
24.4371
13.8454
24.9676
-26.3132
-11.2725
-25.1661
-23.7413
-15.8005
-25.0829
25.4235
13.0677
24.596
-30.3473
29.8246
24.0861
12.2751
23.9763
-24.1259
-12.2491
-24.0294
37.5403
-9.75774
-27.7825
-26.0418
-20.0254
26.164
14.1989
27.9751
18.0688
28.0619
12.9525
24.5878
-27.1514
7.12601
-18.834
-9.19103
-18.6402
18.1851
10.0839
18.5204
-20.3844
-12.1681
-20.4345
-20.6033
-12.7232
20.7742
11.6564
-21.0512
-17.9213
21.5279
11.5192
11.1967
-26.8532
12.8108
-25.1837
-23.2063
-9.62302
-22.9425
14.8648
9.11721
-23.9821
-8.80492
38.7334
-18.7919
32.7258
-25.8361
-16.0444
-26.1248
-31.8883
-8.4875
-31.3133
-21.6465
20.8378
-22.3533
21.1769
37.3445
-20.4515
-16.8931
-19.5234
-12.2655
19.4809
-2.57462
-18.4429
18.4745
0.325818
19.1121
23.5725
20.9979
-18.9935
-9.61025
-18.9166
18.8305
9.86221
18.9557
31.7655
10.8465
31.9364
-30.6836
-11.5731
-31.2745
19.6916
-19.5339
14.6007
-14.4234
25.225
12.9019
-24.2141
-13.2423
29.4983
-14.722
-14.7763
-20.1255
19.2836
0.841855
-8.47373
-1.92078
1.4925
-9.89009
-7.39784
10.0059
0.294186
19.5778
12.18
-9.10314
9.4279
10.031
10.2227
-0.0420975
12.5466
-11.747
26.7064
-12.4904
-14.216
25.5509
-26.1352
-5.72353
-26.1365
20.413
1.8404
8.39469
-7.2087
-10.4198
-2.69429
-9.86522
7.71387
5.14082
8.69872
4.88255
8.8271
-14.3442
2.70036
11.6438
-9.46164
-9.43196
-17.7299
-5.04693
22.7768
26.3068
10.1619
-26.0542
-1.0352
13.6481
-13.4566
-3.78568
-13.9442
10.2223
-14.0079
-17.136
-9.23685
26.3728
-16.5043
-2.41225
16.4341
2.5689
-18.6663
-10.3129
18.6451
1.49847
-15.2252
30.2703
-15.045
-24.8355
12.6065
17.5865
22.3941
-23.686
12.0677
11.6183
-6.09954
21.0062
3.96134
21.3356
-32.8769
21.6043
27.4972
14.3912
-28.8588
3.69271
-29.1842
33.6529
-29.5637
-4.0892
17.1193
16.5336
19.2404
18.1041
-14.0964
33.3369
-4.6741
-24.8896
33.8583
-19.4671
20.5201
-39.9872
-38.6243
13.7347
-25.1486
31.241
-6.09245
-9.40818
-20.9391
34.5568
-2.98641
-31.5704
21.6096
-18.8389
-19.3254
38.1642
-28.5966
31.5744
-9.09296
-22.4815
-25.4269
-15.1937
25.8059
4.01865
-35.5258
42.6518
-10.938
20.988
2.98827
20.7982
13.4142
-21.1308
7.71658
15.1824
-24.2754
8.55617
-29.6869
-17.8707
34.4954
-16.6247
-27.4937
-24.758
-2.73573
7.31505
35.3368
-25.3839
19.4588
5.92505
16.2782
2.6775
-16.4242
-2.21596
1.61543
21.746
-23.3615
20.1358
20.591
16.1761
5.5699
18.775
10.1927
-18.7573
-1.67721
-20.0165
7.2933
-8.36011
-17.5271
24.8204
-19.5891
2.06201
-13.0537
-17.101
30.1548
-22.2447
14.9642
15.3061
24.8264
-23.7987
6.69761
-11.7348
-12.0639
12.8915
-21.2516
9.38181
15.4386
20.901
2.97969
17.6205
16.8748
-26.7377
1.55401
29.7587
-25.2992
6.27764
21.7842
-25.7365
0.978501
-21.964
3.79378
-22.5857
-20.1883
22.9172
-31.4047
-17.07
28.9588
2.97762
-29.1487
-2.16456
-15.1101
-6.5364
-15.7669
-6.94875
-15.4046
-21.0452
-4.49098
-16.5542
16.3468
-16.656
-8.42694
18.0368
3.14007
-17.7578
17.3302
-18.1261
17.5534
0.523716
17.9508
21.5216
9.25607
-11.8512
21.1073
-22.7839
33.6304
-39.8339
17.05
19.8352
-31.4083
-19.9987
12.1156
7.576
12.1228
21.6102
-23.9057
2.29551
-23.4241
28.211
-4.78686
-36.5637
13.1396
-14.9535
13.2821
1.31867
13.3475
3.17332
11.7341
-14.9075
-11.2501
-11.2102
-11.2671
-16.5724
27.8394
5.6368
-16.3791
10.7423
-16.6934
22.3302
-0.49644
-15.8827
25.321
-13.5869
26.6397
-17.1898
9.44987
15.9114
27.1497
-11.2383
21.0256
-8.1237
8.78907
-20.0274
-7.78331
-14.4992
24.5831
-15.6555
17.7175
-1.22169
18.9392
-19.3055
4.58349
-3.12937
17.4616
18.2446
20.4968
-14.9269
14.3069
-22.4306
-5.72049
-19.4509
-4.01232
-0.0480554
-18.5493
18.5973
18.1207
-18.1688
-9.24635
19.506
-10.2597
16.0267
-9.92739
-6.09929
-9.57188
-9.96201
9.36496
3.18167
19.2084
1.39887
-11.3263
-10.3481
-8.97844
15.6026
11.1038
-9.08616
9.92801
7.59366
0.801026
2.97837
5.72034
9.15509
-6.17672
0.542542
8.61255
-6.66616
9.93033
3.71779
-10.4021
0.536904
-6.60599
16.8282
5.03783
-10.1787
4.00193
4.787
-17.2774
23.4822
-12.3498
-11.1324
28.2692
5.52465
-17.8745
20.6119
-18.7715
11.3445
-16.3915
-6.52992
-25.3014
-17.1055
-12.0476
22.7899
-15.7918
25.9538
5.65394
-24.9186
30.5725
-17.3954
8.15855
-14.5069
18.2247
-4.93478
-9.57209
13.5027
12.8701
-14.259
0.314736
-0.756257
11.1815
-11.9378
-2.82643
-12.2881
-22.4913
23.9898
-10.3205
22.3882
10.7868
-9.33356
31.7217
8.98279
-18.3163
-15.8527
-18.265
-6.69806
15.6961
-3.16151
-20.8679
-25.643
20.6502
0.685354
-32.9364
36.7155
-3.77913
-19.0909
-2.5134
19.6327
-26.5748
2.29942
-18.0186
18.6969
22.6582
23.3436
-30.9331
-0.63722
-17.8655
4.02946
-21.8949
20.5631
-9.84522
23.5799
-26.6317
18.2048
-23.4916
19.4907
-2.40423
19.9784
-12.2618
7.80417
-22.9979
-18.9792
24.9036
-12.6286
27.8919
-14.5977
42.4896
-25.5357
24.7793
17.7102
-5.14968
-20.9751
-24.3564
19.2067
0.422931
21.2212
24.2165
-14.0238
22.5392
10.8805
-22.6153
-10.3711
-31.6359
9.02065
-16.3298
-9.24863
18.2693
15.5778
18.2553
6.20542
-16.0393
24.0931
-26.8289
-7.46845
-12.7198
24.0496
-4.84282
14.5805
-27.3004
-8.00514
17.9732
-1.32668
-16.6465
2.47824
-19.5483
8.14246
-27.6907
23.2622
-25.4268
5.12102
-20.0745
-12.6368
-12.9671
-5.27096
-12.8551
-17.1473
11.8763
-4.00774
13.3224
-19.8429
18.5162
-8.36813
20.2445
-13.5376
-2.22928
14.1011
3.45231
23.6968
2.28506
-22.2838
-10.5927
20.3551
-9.76241
5.00986
-16.2642
4.09089
11.5726
16.6966
-31.9855
0.577288
-21.7065
-9.18228
16.7583
10.3237
28.4445
4.53872
18.387
-1.62869
22.9257
10.4941
10.3568
-14.5676
16.8632
4.02969
21.0797
-4.22212
13.672
9.12533
9.35666
4.0999
11.2372
7.00737
15.8207
0.913268
-10.2969
8.13781
-17.1162
-3.18846
-16.8465
-0.218915
10.3994
-10.6183
16.2688
-5.165
6.50643
0.0646916
-10.4595
10.3948
-14.1513
-9.65845
-1.0459
-7.6668
11.6687
9.16144
-10.6228
-3.5285
1.6278
-18.7333
14.7637
-14.4489
-1.57881
28.9937
-13.2679
1.33013
-5.10934
-10.9579
-13.6522
13.1153
30.2557
1.46606
15.2106
25.4558
15.143
1.1192
15.0845
-21.177
-14.6024
-21.8142
-1.25112
18.3815
7.37835
27.9584
25.0886
20.2458
-7.0546
-33.8835
26.6856
-9.82248
21.8988
-5.25225
-22.4385
22.5751
11.0554
-25.5527
0.125897
-22.3126
-32.1351
-1.13567
19.6519
-22.5611
20.3318
13.7954
2.75877
-10.6373
-2.32986
10.8781
-0.521345
22.4044
-1.23606
-16.7194
17.9555
-9.16336
5.9749
1.36872
8.55929
11.7635
6.59851
-10.1209
-20.7393
-9.38638
-7.891
-20.5188
2.25806
-11.4195
12.6679
-6.69299
6.5686
11.2625
17.7689
-3.58431
-14.5845
13.844
-7.27538
10.4936
)
;

boundaryField
{
    wall-4
    {
        type            calculated;
        value           uniform 0;
    }
    velocity-inlet-5
    {
        type            calculated;
        value           uniform -18.7548;
    }
    velocity-inlet-6
    {
        type            calculated;
        value           uniform -9.37738;
    }
    pressure-outlet-7
    {
        type            calculated;
        value           nonuniform List<scalar> 8(21.6651 22.8378 22.9887 24.3128 23.9018 23.9651 23.8182 24.0582);
    }
    wall-8
    {
        type            calculated;
        value           uniform 0;
    }
    frontAndBackPlanes
    {
        type            empty;
        value           nonuniform 0();
    }
}


// ************************************************************************* //
