/*--------------------------------*- C++ -*----------------------------------*\
| =========                 |                                                 |
| \\      /  F ield         | OpenFOAM: The Open Source CFD Toolbox           |
|  \\    /   O peration     | Version:  4.0                                   |
|   \\  /    A nd           | Web:      www.OpenFOAM.org                      |
|    \\/     M anipulation  |                                                 |
\*---------------------------------------------------------------------------*/
FoamFile
{
    version     2.0;
    format      ascii;
    class       volVectorField;
    location    "9";
    object      U;
}
// * * * * * * * * * * * * * * * * * * * * * * * * * * * * * * * * * * * * * //

dimensions      [0 1 -1 0 0 0 0];

internalField   nonuniform List<vector> 
918
(
(4.98429 -0.00077073 0)
(0.00491522 4.96591 0)
(-0.0717504 5.4593 0)
(4.97869 0.00184352 0)
(-0.00302763 6.13654 5.90438e-20)
(-0.00676418 4.94767 -3.17687e-17)
(4.17548 5.91037 1.01983e-17)
(2.29639 1.28962 -2.89912e-19)
(4.99993 -7.73225e-05 0)
(0.395915 4.71479 0)
(0.104705 4.19025 0)
(4.55987 -0.000544659 0)
(0.0104525 4.92886 0)
(-0.032208 4.7967 0)
(-0.084903 6.12666 -5.26187e-18)
(0.0138745 5.97221 2.49915e-20)
(3.14338 0.501569 2.03804e-17)
(0.999711 6.1355 7.3257e-18)
(4.96067 0.00719703 0)
(0.0135136 4.31675 0)
(1.12798 1.1983 -1.5161e-17)
(5.0021 -0.00444807 0)
(4.99998 -0.00901753 0)
(4.97491 -0.00634678 0)
(4.11239 0.0775852 0)
(0.045998 4.30772 0)
(-0.0235315 4.91281 1.42861e-17)
(-0.112484 5.51493 0)
(-0.135619 6.00412 0)
(-0.0979194 5.45081 0)
(-0.0284091 6.68006 0)
(0.00912362 6.17716 -5.10821e-20)
(0.00876211 5.98309 0)
(-0.021729 4.98712 -1.22452e-21)
(-0.017255 5.00548 2.42891e-17)
(0.00215792 5.00076 0)
(4.88751 -0.0136203 0)
(2.11051 2.97048 4.14286e-18)
(4.50854 5.81189 -1.40284e-17)
(5.12081 5.16525 1.62142e-17)
(3.61786 6.22145 -2.0678e-18)
(3.36348 6.36819 1.20885e-17)
(2.45674 1.28837 2.81023e-19)
(2.5299 1.12378 0)
(6.08954 3.09633 0)
(2.23117 1.39796 1.28982e-18)
(2.09739 1.31695 -1.35124e-18)
(4.92155 -0.00888994 0)
(5.00027 0.000334971 0)
(4.99993 0.000591984 0)
(5.0037 -0.00764 0)
(5.00088 -0.000467487 0)
(5.00022 0.000288496 0)
(0.251423 5.39529 -5.15926e-18)
(0.117975 5.33733 0)
(0.562706 4.96366 0)
(0.0751664 5.18033 0)
(0.276498 4.51345 0)
(0.0603154 5.86126 0)
(0.0202524 4.93981 0)
(0.12501 4.22484 0)
(0.00922031 4.93248 0)
(0.0847757 4.17409 0)
(4.94611 -0.00352592 0)
(4.73383 0.0539408 0)
(4.64555 -0.0009106 0)
(4.6687 0.0631705 0)
(4.45479 0.0314365 0)
(0.0148385 4.99993 1.23734e-17)
(0.0122571 5.00541 0)
(0.00708181 5.00413 0)
(0.0138495 4.99641 1.48074e-22)
(0.00823856 4.95763 -1.81213e-17)
(0.0153993 4.98246 0)
(0.00917441 4.9024 0)
(0.0443614 4.9041 3.84179e-23)
(-0.0138012 4.83287 0)
(0.0718335 4.86427 0)
(-0.0500805 4.71573 0)
(0.870225 7.11539 0)
(-0.23321 7.40441 0)
(0.391545 6.27395 4.9325e-18)
(0.0510072 5.53897 0)
(-0.0856303 6.42458 0)
(0.0174574 6.19694 -2.46388e-20)
(0.0185319 5.96058 -1.82615e-21)
(3.24698 0.7995 -6.41808e-18)
(3.29356 0.563071 -6.19115e-18)
(3.12661 0.859015 -2.10324e-17)
(2.99346 0.875447 -1.28112e-17)
(0.892356 3.94897 0)
(1.38432 6.67779 -8.94712e-18)
(1.7487 6.59116 1.4502e-17)
(4.98532 0.00979371 0)
(4.93809 0.0063294 0)
(5.00029 0.000822685 0)
(5.00243 0.00952932 0)
(5.00294 0.00998031 -3.93469e-17)
(4.99153 0.00942447 2.7763e-17)
(-0.0580305 5.00234 0)
(0.0334586 4.26986 0)
(-0.14837 5.53545 0)
(-0.0873134 5.09272 0)
(-0.0158532 4.41043 0)
(1.43226 1.36287 4.56088e-18)
(1.52812 1.27236 0)
(4.99441 -0.00771682 0)
(4.95408 -0.00695588 0)
(4.5399 0.0654739 0)
(4.34525 0.064303 0)
(4.31744 0.0564386 0)
(5.4479 -0.0782465 0)
(4.10194 0.0937724 0)
(3.77771 0.162947 2.57915e-17)
(0.00709406 4.98193 1.4336e-17)
(0.12187 4.81171 0)
(0.194063 4.75484 0)
(-0.0650227 4.57674 0)
(-0.00597613 4.98573 1.44076e-17)
(-0.0272225 4.90937 0)
(-0.0131084 4.98749 -4.27831e-17)
(-0.0187997 4.92457 1.43314e-17)
(-0.0918728 6.39193 0)
(-0.0691247 6.37428 0)
(0.0150769 6.17772 1.50385e-21)
(0.0124912 6.15291 0)
(0.00964296 5.97866 0)
(4.95597 0.00238051 0)
(4.8863 -0.016507 0)
(4.83953 0.00356847 0)
(4.96093 -0.000473494 0)
(4.89304 -0.0116711 0)
(2.25172 4.08435 -5.16586e-18)
(2.20978 3.43451 0)
(2.05467 3.87337 6.3429e-19)
(2.01211 2.67139 0)
(4.79649 5.23189 -3.99829e-18)
(5.36163 4.67504 7.75744e-18)
(2.09616 6.73416 0)
(2.84383 6.57842 0)
(2.54285 6.63568 0)
(1.74282 2.70614 -3.98388e-18)
(2.58492 1.29839 0)
(2.67641 1.13965 3.63842e-18)
(5.48808 4.38395 0)
(5.67036 3.74049 0)
(5.94868 3.54171 -7.80141e-18)
(6.2225 2.85627 0)
(6.45193 2.15801 1.30291e-18)
(4.96423 -0.00399551 0)
(4.96642 -0.00727767 0)
(4.90607 -0.0112214 0)
(4.98546 -0.00793171 0)
(4.97679 -0.00758844 0)
(4.93674 -0.0071207 0)
(5.00013 0.00297222 0)
(5.00068 0.00167508 0)
(4.99996 0.00104012 0)
(0.136633 5.7089 2.85112e-18)
(0.349667 5.22554 0)
(0.0683837 5.96198 4.50511e-18)
(0.170695 5.54057 -3.74124e-18)
(0.738587 6.04597 -6.0208e-18)
(0.183831 5.54848 0)
(0.524225 5.54217 0)
(0.0516155 5.06966 0)
(0.218535 4.36559 0)
(0.0255981 6.1927 -6.55018e-21)
(0.0792047 5.82221 0)
(0.0241606 6.21056 -2.4513e-19)
(0.0498884 5.8994 4.18492e-19)
(0.0445872 4.98815 0)
(0.0329058 4.95249 0)
(0.168331 4.2744 0)
(-0.00666914 4.93233 0)
(0.067696 4.18452 0)
(5.04199 0.041908 0)
(4.99648 0.0152454 0)
(4.996 0.026283 0)
(4.91221 -0.00756096 0)
(4.76041 -0.00871547 0)
(4.846 0.0394936 0)
(4.79781 0.0477125 0)
(4.7072 -0.00788244 0)
(0.0110146 5.06192 -1.19744e-19)
(0.0101451 5.06274 0)
(0.0172153 4.96915 0)
(0.00553109 4.87631 0)
(2.24056 8.30617 0)
(2.97505 7.23392 2.09473e-18)
(0.215214 5.67739 0)
(0.0372264 5.19877 0)
(-0.0815576 6.31897 0)
(-0.0933947 6.36837 0)
(-0.0886214 6.33872 0)
(-0.0352643 6.66212 -1.9452e-20)
(-0.0757854 6.50371 0)
(-0.0633914 6.54793 0)
(0.0326453 5.927 1.51987e-20)
(0.0237317 6.23122 2.45278e-20)
(0.018837 6.21116 1.62337e-21)
(0.0260068 5.93953 0)
(3.44933 0.466701 1.0489e-17)
(3.40668 0.225712 -1.02208e-17)
(0.616719 4.64384 0)
(1.11631 3.63058 -2.54315e-18)
(0.480634 4.82934 -7.59205e-18)
(0.714513 4.2528 7.61714e-18)
(4.89081 0.00499347 0)
(4.96258 0.0139786 0)
(4.97146 0.0122371 0)
(4.91644 0.00575878 0)
(-0.0215847 4.94561 0)
(-0.0388983 4.96449 0)
(0.0509693 4.22025 0)
(1.98368 1.45354 1.1779e-17)
(1.72507 1.37519 -1.43708e-17)
(1.80583 1.29517 0)
(5.92979 0.46206 2.84e-19)
(6.0002 0.115064 0)
(5.52706 0.190158 0)
(5.19412 0.0296178 0)
(3.57235 0.526084 0)
(3.76975 0.255188 -4.10491e-17)
(3.5793 0.242458 1.74347e-17)
(0.0438559 5.03347 1.34644e-17)
(-0.0176759 4.94031 1.78357e-19)
(0.00782842 5.05088 -2.85813e-19)
(0.0145986 5.04744 1.01333e-17)
(-0.0154121 4.99713 4.57242e-19)
(-0.0136686 4.94861 -1.82606e-21)
(-0.0175047 5.01347 -8.05676e-18)
(0.0115444 5.02875 5.48315e-18)
(0.00586495 5.03433 -8.94018e-18)
(4.97724 0.0196563 0)
(4.96526 0.011209 0)
(4.89315 -0.0121637 0)
(4.94771 0.0166419 0)
(4.92685 0.0200315 0)
(4.86464 0.004431 0)
(4.88118 0.0310626 0)
(4.90066 0.023837 0)
(4.80409 -0.004968 0)
(2.43822 4.37706 -4.54618e-18)
(2.23965 3.99029 0)
(1.87034 2.56576 1.18452e-18)
(1.76308 3.73528 9.14744e-18)
(1.89598 3.77581 -5.44617e-18)
(1.9268 2.56312 1.04692e-17)
(1.36174 3.91528 1.9563e-17)
(1.62149 2.91418 3.8885e-18)
(2.92378 1.08197 1.36929e-17)
(2.84239 1.10346 3.6773e-18)
(2.87142 0.782877 7.51295e-18)
(6.31251 2.17742 3.93175e-18)
(6.48701 1.5655 3.93213e-18)
(0.046349 6.08004 1.74587e-18)
(0.141088 5.66483 0)
(5.26076 0.10538 0)
(5.1233 0.059411 0)
(5.06924 0.00987402 0)
(0.00164644 5.07757 0)
(0.029989 4.93379 2.02927e-17)
(0.021496 4.95346 0)
(-0.0025722 4.85433 -2.0057e-17)
(-0.000695522 5.09177 5.29037e-18)
(0.0155483 5.08054 0)
(2.46145 4.66702 3.32912e-19)
(3.10579 5.81418 -1.1034e-18)
(2.339 4.82745 -1.82963e-18)
(0.0852015 5.13386 -1.32277e-17)
(0.127196 5.32582 0)
(0.0402297 5.06406 0)
(0.0236994 6.21639 -5.59557e-20)
(0.0226012 6.244 -1.14628e-19)
(0.0379205 5.89881 -4.1965e-20)
(0.800427 4.36493 8.02897e-18)
(1.27819 3.46962 -5.66406e-18)
(0.208113 5.45888 5.16076e-18)
(0.319375 5.17137 -6.38465e-18)
(0.515004 4.77622 7.80822e-19)
(0.0281596 5.12642 -3.39421e-17)
(0.0338717 5.12065 3.63414e-17)
(0.00582982 4.98529 1.45095e-17)
(0.0193919 4.99712 -1.45783e-17)
(-0.0213794 4.91556 -1.47776e-17)
(0.0167034 5.09741 -4.04283e-17)
(0.0100716 5.1017 3.75159e-17)
(1.50549 3.75097 0)
(1.6361 3.73262 -1.95735e-17)
(1.79163 2.66508 8.71965e-18)
(1.2237 3.95108 1.07985e-17)
(1.51369 3.03418 -1.68702e-17)
(6.33828 0.884007 9.41349e-20)
(6.4724 1.31696 0)
(6.46953 0.644145 1.33148e-18)
(0.0303087 6.18041 -1.00923e-20)
(0.0372105 6.13232 0)
(0.110782 5.75607 0)
(0.935083 4.23495 -2.96404e-18)
(1.06805 4.13744 -6.80108e-18)
(1.40251 3.22686 1.25591e-17)
(5.00731 -0.0102749 0)
(5.00863 -0.00687966 6.96551e-18)
(-0.0918576 6.34104 0)
(-0.124152 6.40472 0)
(5.00226 0.0039998 8.72483e-21)
(5.00307 0.0090551 1.54716e-17)
(-0.0356458 6.6695 2.23123e-20)
(-0.0230912 6.70783 0)
(0.249753 5.40866 1.21853e-17)
(1.10988 6.37731 0)
(5.25385 3.42808 -3.68979e-19)
(5.00927 0.0147251 -1.01213e-20)
(5.02607 -0.00630474 0)
(5.00151 0.00141406 2.72311e-21)
(0.335108 6.55447 0)
(0.301437 6.57517 0)
(0.0155606 6.35207 0)
(0.0232251 6.84207 3.19498e-19)
(-0.005152 6.8059 4.7408e-20)
(4.8986 0.0924504 9.48847e-20)
(5.12727 0.04969 0)
(5.25603 0.124636 0)
(-0.0816642 6.38822 0)
(-0.015022 6.76298 0)
(-0.054002 6.34626 0)
(1.05611 7.02118 -4.33586e-18)
(5.01309 -0.00762373 0)
(5.0115 -0.0146071 0)
(5.00258 0.00248643 9.24763e-18)
(5.00611 -0.00408913 -1.04698e-17)
(5.0009 -0.000300193 0)
(-0.0851009 6.33241 0)
(-0.0760067 6.32082 0)
(-0.0818982 6.326 0)
(-0.0566103 6.34126 0)
(-0.0837742 6.31888 0)
(-0.0851223 6.34213 0)
(5.05489 0.00678895 0)
(4.99684 0.027587 1.40207e-20)
(3.51096 6.11534 7.37227e-18)
(5.00209 0.00197931 -8.75301e-18)
(5.00307 0.00486951 1.06648e-17)
(5.00145 0.00314212 0)
(5.00909 0.0126913 9.41554e-18)
(5.00466 0.0088052 -1.17201e-17)
(5.00562 0.0128526 0)
(-0.017955 6.76706 0)
(-0.0231076 6.72717 -4.73298e-20)
(-0.0183684 6.74938 3.32543e-20)
(5.81029 1.3168 7.09819e-18)
(5.52518 0.405067 0)
(0.369846 4.94339 -2.17917e-17)
(0.258256 4.66733 -1.44491e-18)
(0.647929 5.36818 2.89397e-17)
(0.510075 5.5196 -8.36531e-18)
(0.554296 5.62541 0)
(0.120958 5.19964 5.52707e-18)
(0.351171 5.23867 2.14858e-17)
(0.336392 5.37189 -1.03391e-17)
(0.136003 5.07891 0)
(3.23038 1.71398 0)
(2.95255 1.92699 0)
(5.29812 3.52834 1.62331e-19)
(5.01902 4.21039 1.0208e-18)
(5.56538 2.90032 0)
(5.54891 2.78748 0)
(5.01279 0.0158752 -1.76458e-17)
(5.01184 0.0179527 2.04008e-17)
(5.03474 -0.00433413 0)
(5.03078 -0.0109179 0)
(5.00674 0.00789783 0)
(5.00997 0.00816596 0)
(5.00388 0.00386157 0)
(5.00806 0.0104203 0)
(5.00555 0.00737308 0)
(5.00408 0.00763246 0)
(0.305591 6.5262 0)
(0.217574 6.45475 0)
(0.442326 6.72484 0)
(0.396752 6.74627 0)
(0.358166 6.52811 0)
(0.370847 6.58066 -2.78854e-18)
(0.261195 6.69985 0)
(0.188463 6.74239 1.35971e-18)
(0.0958914 6.83147 -1.08888e-18)
(0.0102428 6.34551 0)
(0.0008002 6.33472 0)
(0.0324226 6.35883 0)
(0.0496663 6.27726 0)
(0.0318649 6.45003 5.36192e-21)
(-0.00172439 6.82552 2.27926e-20)
(0.0219507 6.87906 1.87339e-19)
(0.000993904 6.89692 0)
(-0.00476397 6.82452 -9.57682e-20)
(-0.00584371 6.8199 -2.59998e-20)
(0.0382886 6.43049 1.63127e-20)
(0.00965034 6.64201 -3.57882e-20)
(0.00344095 6.70141 -2.00891e-19)
(4.93687 0.112367 1.8262e-17)
(4.94004 0.0583181 -2.26727e-17)
(4.8965 0.139738 -1.92644e-17)
(4.83726 0.105478 2.44519e-17)
(5.13126 0.0572373 0)
(5.09598 0.0088482 0)
(5.23793 0.164167 0)
(5.16535 0.079688 0)
(5.16265 0.04462 0)
(5.45982 0.351578 0)
(5.30827 0.210612 0)
(5.30677 0.175301 0)
(-0.0605657 6.60622 7.73139e-21)
(-0.0778863 6.45296 0)
(-0.0703069 6.50468 0)
(-0.0137389 6.77959 -2.33906e-20)
(-0.00619382 6.7973 1.22372e-22)
(-0.0536602 6.35003 -1.1475e-19)
(-0.0700568 6.34382 1.18406e-19)
(-0.0564637 6.34129 0)
(-0.071226 6.34051 0)
(-0.0841983 6.33071 0)
(-0.0413014 6.3495 0)
(-0.0340209 6.3359 0)
(1.61182 7.09241 6.56309e-18)
(1.58073 7.11293 2.95225e-18)
(1.22462 5.95254 -2.02489e-18)
(0.724374 6.22683 5.17001e-18)
(1.22652 5.90562 1.05982e-18)
(5.02658 -0.00471033 0)
(5.01882 -0.00723513 0)
(5.0185 -0.0138558 0)
(5.00753 0.00301215 0)
(5.00511 0.000725148 0)
(5.00788 -0.00194988 0)
(5.01203 -0.000471153 0)
(5.0158 -7.56071e-05 0)
(5.00614 0.0336356 1.74702e-17)
(5.00584 0.0200692 -2.11935e-17)
(5.00085 0.0367208 -1.87358e-17)
(4.98843 0.0383011 2.09856e-17)
(3.47524 6.20547 0)
(2.92914 6.62268 6.39622e-18)
(4.11774 5.73546 2.79371e-18)
(4.10966 5.73122 -3.66847e-18)
(3.08219 5.43445 1.64128e-17)
(4.03004 0.668924 1.10164e-17)
(5.55851 0.465959 0)
(5.75804 0.874979 -5.40742e-18)
(5.61233 0.775999 -2.1835e-19)
(4.80285 0.651171 0)
(0.769553 5.08006 1.54328e-17)
(0.684181 4.67781 -2.64471e-17)
(0.401067 3.44069 1.67319e-17)
(0.828963 1.27974 -7.76108e-18)
(0.937002 6.26404 6.02761e-18)
(0.617218 5.91169 0)
(0.716655 6.04284 -7.84494e-18)
(0.995129 5.28491 -4.20809e-17)
(1.18579 5.68219 0)
(0.0470706 5.11547 9.54135e-19)
(0.0721295 5.12782 -9.75313e-18)
(0.0571718 5.11467 1.53583e-17)
(0.168299 5.15002 0)
(0.172234 5.20919 0)
(3.34999 5.56908 0)
(2.7659 4.01459 -8.78657e-18)
(4.62424 5.06127 -1.43322e-18)
(4.67689 5.1257 0)
(4.18388 4.52288 -1.09391e-18)
(5.06815 4.3758 5.49976e-19)
(2.00228 1.98115 -1.98222e-17)
(3.42601 1.64925 -4.62507e-19)
(3.4151 1.54207 7.96307e-18)
(2.97392 2.12819 6.2169e-19)
(2.65701 1.99282 -2.51631e-17)
(3.29817 1.80074 0)
(3.38557 2.12829 1.13687e-17)
(3.37129 2.10866 0)
(3.18178 2.01758 0)
(3.10692 1.76928 0)
(3.79884 3.01687 6.84166e-18)
(5.8404 1.40855 -5.78858e-18)
(5.7783 2.1052 0)
(5.69547 1.99263 0)
(3.76088 1.19597 1.19493e-17)
(3.97146 2.62182 -6.98679e-18)
(3.55449 2.43647 1.19942e-17)
(4.44889 2.10232 -1.33086e-17)
(5.00967 0.0235601 1.06163e-17)
(5.01158 0.0183578 -1.02223e-17)
(5.01038 0.0198088 0)
(5.05787 0.00731393 0)
(5.04389 -0.00124795 -1.1072e-17)
(5.04247 -0.00884613 1.08634e-17)
(5.01904 0.0308046 0)
(5.01308 0.034544 0)
(5.0111 0.0108506 0)
(5.0114 0.0139978 0)
(5.01513 0.0132025 0)
(5.01448 0.0094853 0)
(0.1717 6.48536 0)
(0.133406 6.36543 0)
(0.598725 6.65233 1.27609e-18)
(0.99449 6.95352 2.09707e-18)
(0.540497 6.91792 4.43928e-18)
(0.63163 6.93508 -7.35002e-18)
(0.660096 6.74548 0)
(0.630803 6.24572 -2.39291e-19)
(0.565363 6.27495 0)
(1.13169 5.95504 -1.49574e-18)
(0.887188 6.03233 5.15312e-18)
(0.810336 6.28229 2.05031e-19)
(0.997793 6.62989 9.50583e-19)
(0.878331 6.63069 -7.8056e-19)
(1.31175 6.32287 -2.91299e-19)
(1.00116 6.13722 0)
(1.08625 6.10244 4.99961e-19)
(0.104514 6.57492 -1.98533e-19)
(0.112559 6.78604 0)
(0.229503 6.55182 1.28512e-18)
(0.188876 6.59108 0)
(0.164409 6.76547 -1.4933e-18)
(0.108943 6.82705 0)
(0.0425232 6.38856 2.56523e-19)
(0.0685712 6.34508 0)
(0.0675147 6.43215 0)
(0.0342464 6.42998 -2.94971e-19)
(0.0325676 6.85503 -1.63139e-20)
(0.0758719 6.86841 1.26427e-18)
(0.0396292 6.90637 7.38435e-21)
(0.00519294 6.42417 -1.93321e-20)
(0.0117974 6.38824 -1.62254e-20)
(-0.00946864 6.33555 0)
(-0.0116427 6.32664 0)
(0.0974428 6.28522 1.13116e-19)
(0.13083 6.41929 -1.95313e-19)
(0.100228 6.33217 1.15553e-19)
(0.174896 6.32074 0)
(-0.0464435 6.5756 2.05177e-19)
(-0.0323543 6.74489 -8.21952e-20)
(-0.0166805 6.69238 1.44265e-20)
(0.012537 6.41209 2.57454e-20)
(-0.014073 6.72749 -1.42155e-21)
(-0.00816597 6.71462 5.10393e-20)
(4.98729 0.0468595 -1.11821e-17)
(4.9695 0.0697133 1.21997e-17)
(4.96857 0.0398625 0)
(4.87526 0.24216 1.78052e-17)
(4.83405 0.184717 -2.03789e-17)
(4.73113 0.173844 2.31276e-17)
(4.85986 0.436488 -2.41805e-18)
(5.07434 0.0105205 0)
(5.09698 0.0249641 1.0449e-17)
(5.06673 -0.00150792 -1.08429e-17)
(5.15167 0.169505 -6.60037e-19)
(5.12996 0.115067 5.62523e-18)
(5.10981 0.249995 0)
(5.06847 0.205798 -2.05743e-18)
(4.99076 0.147247 0)
(4.97814 0.120286 0)
(5.02036 0.0380446 0)
(5.00854 0.038193 0)
(5.03061 0.115949 4.27369e-18)
(5.03216 0.093143 -9.46334e-18)
(5.07497 0.146373 -4.4137e-18)
(5.05628 0.141755 -4.89026e-18)
(5.14405 0.268334 9.74715e-18)
(5.26712 0.226998 0)
(5.29123 0.418539 0)
(-0.0476753 6.56243 1.21626e-19)
(-0.0660212 6.46522 8.45857e-21)
(-0.0651503 6.46605 0)
(-0.0419818 6.65864 -1.06274e-19)
(-0.0529365 6.61473 -1.56004e-20)
(-0.0452016 6.65531 1.42169e-20)
(-0.00235849 6.8227 2.40131e-20)
(-0.0140533 6.76934 -2.86058e-22)
(-0.00864902 6.73904 5.88973e-21)
(-0.0027152 6.80647 4.75803e-21)
(-0.00364683 6.81438 -4.62316e-21)
(-0.0451796 6.35733 -9.75836e-21)
(-0.0454706 6.3655 -1.68839e-19)
(1.74381 6.5895 -3.28103e-18)
(1.39754 6.34658 -4.80883e-20)
(2.91349 6.75282 -6.11925e-18)
(2.2544 7.03061 -3.2772e-18)
(2.28668 7.0119 0)
(1.33423 5.83571 1.639e-18)
(1.4109 5.9086 2.53194e-18)
(0.87598 6.08289 5.11151e-19)
(0.864899 6.01308 -5.49828e-18)
(1.09958 5.92762 4.44138e-18)
(1.1748 6.00719 0)
(0.935975 6.14637 -3.80653e-18)
(0.503731 6.36859 7.17924e-18)
(0.699498 6.25523 -4.75267e-19)
(0.493321 6.47114 -1.0438e-17)
(2.32809 5.52946 1.14659e-17)
(1.98669 5.69439 0)
(5.01266 0.00462905 4.02068e-19)
(5.01877 -0.000263025 -2.8997e-19)
(5.01957 0.00331731 -5.31651e-18)
(5.01827 0.00535996 5.40478e-18)
(5.01377 0.0077029 0)
(3.12104 5.88155 0)
(3.22626 5.35078 0)
(3.7523 5.10351 0)
(3.23286 5.24195 0)
(3.05241 5.47292 -2.43587e-19)
(3.01836 5.45766 0)
(2.41435 5.22674 6.77428e-20)
(1.93649 5.5582 0)
(2.1435 5.40031 -6.83263e-18)
(2.23483 5.47364 4.44814e-18)
(4.11685 0.742505 0)
(3.95614 0.90018 2.73498e-18)
(4.42193 0.675744 1.66238e-17)
(4.16719 0.552723 -6.53639e-18)
(4.17551 0.457624 -1.94946e-17)
(5.13913 1.09325 -1.23055e-17)
(4.65138 1.3082 -3.51222e-19)
(4.35574 1.42316 1.53948e-17)
(4.73416 1.01751 1.2611e-17)
(4.48183 0.855893 -2.18069e-17)
(4.35308 0.886219 2.78053e-18)
(4.47792 1.25609 -5.97469e-18)
(4.3377 0.975848 0)
(4.70293 0.788595 1.09443e-17)
(4.94465 0.849599 0)
(4.89315 0.942649 0)
(5.32007 0.521437 4.16598e-18)
(5.02714 0.783237 -2.39698e-19)
(5.09732 1.10543 -2.43647e-18)
(5.29092 0.932716 0)
(4.94953 0.150699 9.42408e-18)
(4.99392 0.234542 1.2158e-17)
(4.98541 0.155809 -9.96562e-18)
(5.00733 0.259147 -8.05434e-18)
(4.9075 0.273703 -1.24465e-17)
(4.70018 0.643602 0)
(4.7602 0.39337 0)
(4.70177 0.242244 -8.25162e-18)
(4.54114 0.339839 3.07884e-18)
(4.96646 0.446915 1.14722e-17)
(5.08488 0.549418 -1.2982e-17)
(5.10432 0.705749 1.23094e-17)
(4.89458 0.61154 0)
(5.14827 0.473012 0)
(5.0407 0.41975 -5.32333e-18)
(4.99052 0.407616 -9.34076e-18)
(2.80563 4.98496 2.49311e-18)
(2.55691 5.05256 -2.99895e-18)
(2.75989 5.28076 -4.33491e-18)
(2.92062 5.76678 8.37744e-19)
(3.09783 5.60134 -1.03068e-17)
(3.31857 5.63932 4.80335e-18)
(3.39037 5.45938 -2.5432e-19)
(2.95209 5.7264 -4.0788e-18)
(2.89953 5.72153 6.94984e-18)
(2.97677 6.18216 1.0627e-18)
(3.37113 5.95824 -1.33292e-18)
(3.49908 5.94357 0)
(2.92149 4.08845 -7.0784e-19)
(1.5002 2.97782 8.43407e-18)
(1.89292 2.53007 1.28164e-17)
(1.44628 2.26079 1.5075e-17)
(2.6276 2.18644 1.41332e-17)
(2.71801 2.45482 -2.34423e-17)
(2.47415 2.52869 1.89447e-17)
(2.26568 2.30722 -7.49451e-18)
(2.3371 1.87001 1.66318e-17)
(3.80909 1.3029 -6.81534e-18)
(3.6385 1.52766 0)
(3.51172 1.33292 3.15924e-19)
(3.51809 2.5634 7.16216e-18)
(3.21999 2.33846 -2.48745e-17)
(2.88633 2.48633 6.48076e-19)
(3.13671 2.32125 0)
(3.39742 3.56505 6.05971e-18)
(3.99423 3.74507 6.29192e-18)
(3.68426 4.03608 -7.60743e-18)
(4.23811 3.91997 -2.27628e-18)
(4.49273 4.03142 -3.76008e-19)
(4.489 4.1048 3.83339e-19)
(4.08812 3.18762 -1.11544e-17)
(4.49896 3.44169 2.08038e-18)
(4.81522 3.46522 0)
(4.82087 3.31948 -2.64598e-18)
(4.81914 1.60024 3.64017e-18)
(5.51703 1.4714 3.73802e-18)
(5.06938 1.27195 5.65456e-18)
(4.69719 1.71987 -7.24977e-18)
(4.9968 2.0628 0)
(5.33825 1.94339 0)
(4.26722 1.79573 8.35231e-20)
(3.99652 1.43856 0)
(4.01736 1.36051 7.62446e-18)
(4.21914 1.45366 6.32637e-20)
(4.45411 2.13754 3.81194e-17)
(4.25214 2.43033 9.07395e-18)
(4.23666 2.25278 -1.01899e-17)
(3.90324 2.14471 1.06887e-17)
(3.823 2.12429 6.58633e-18)
(3.69347 2.03693 -6.80213e-18)
(5.03624 0.0130783 9.94769e-18)
(5.01963 0.011575 0)
(5.0193 0.0117454 5.99977e-18)
(5.03027 0.0139011 -1.44074e-17)
(5.02321 0.0176793 6.70048e-18)
(5.01669 0.0261882 -1.32635e-17)
(5.01375 0.024045 0)
(5.01267 0.0225262 -2.92526e-18)
(5.01392 0.0162354 7.37534e-18)
(5.01224 0.019127 -3.76319e-18)
(5.01101 0.0194798 2.84027e-18)
(0.0684579 6.36086 0)
(0.0579021 6.44324 0)
(0.111628 6.41383 0)
(0.0946078 6.28548 0)
(0.275129 6.44699 -1.14222e-18)
(0.312619 6.50967 2.46938e-19)
(0.405564 6.35683 1.74757e-19)
(0.384876 6.52952 -9.70581e-19)
(0.162996 6.42985 5.04652e-19)
(0.170886 6.43721 -4.18673e-19)
(0.255358 6.46895 -3.52568e-19)
(0.169527 6.5336 1.07842e-18)
(0.112154 6.48697 1.68239e-19)
(0.0970805 6.46558 9.23839e-20)
(0.28372 6.5346 -1.33979e-18)
(0.330125 6.53027 0)
(0.450748 6.29187 1.00476e-18)
(0.486861 6.29653 3.9175e-19)
(0.818932 6.1792 -7.5276e-19)
(0.594322 6.20678 0)
(0.614765 6.10094 -5.60144e-18)
(0.836676 6.07291 3.99709e-18)
(0.724193 6.17192 -2.02602e-18)
(0.516876 6.30544 1.21106e-18)
(0.371537 6.27318 0)
(0.0808761 6.36933 -3.09996e-19)
(0.0406911 6.65111 -6.84861e-19)
(0.0417181 6.47965 0)
(0.0648107 6.70753 -5.60811e-20)
(0.102694 6.59256 2.32948e-19)
(0.023326 6.38277 -5.80382e-20)
(0.00587339 6.36486 8.46908e-19)
(-0.000382952 6.36681 -3.42995e-19)
(0.00910579 6.37953 -1.90913e-19)
(0.0397223 6.38933 0)
(-0.00855486 6.36445 0)
(-0.0316428 6.34537 -3.62403e-19)
(-0.0253405 6.36275 9.03595e-20)
(-0.0133759 6.36876 0)
(-0.0194788 6.3387 -2.90432e-19)
(-0.0221098 6.32859 5.74069e-19)
(5.06237 0.0566411 0)
(5.08104 0.0489277 -9.99007e-19)
(5.03832 0.0883009 -7.45557e-18)
(5.07015 0.0883313 0)
(5.08283 0.0891355 0)
(5.03386 0.0519238 -8.56922e-20)
(5.02622 0.0516385 1.1968e-17)
(5.02311 0.0551732 1.38182e-17)
(5.00701 0.0559724 0)
(4.991 0.0531704 0)
(5.02591 0.0883777 7.27065e-18)
(4.99264 0.081159 0)
(4.98585 0.0759292 0)
(-0.0141201 6.47089 0)
(-0.0379613 6.36606 -4.61068e-21)
(-0.0386502 6.38269 -4.28516e-20)
(-0.0245641 6.35785 0)
(-0.0305244 6.36663 -1.0427e-19)
(-0.0401015 6.35605 6.16585e-20)
(-0.0436237 6.35656 0)
(1.81236 5.78438 0)
(1.40295 6.08148 -5.0537e-19)
(1.33018 5.86201 0)
(1.91956 6.11431 -7.12883e-19)
(2.20403 6.61753 0)
(1.96678 6.47483 8.98943e-19)
(2.23654 5.54398 -2.09019e-19)
(2.37512 5.53783 -1.11198e-17)
(2.52245 5.53007 1.35882e-17)
(1.99678 5.66791 2.75059e-18)
(1.93127 5.53928 0)
(2.13001 5.41645 0)
(2.28408 5.58083 0)
(2.15312 5.6894 -1.0009e-17)
(1.62561 5.72286 -5.14118e-18)
(1.84389 5.50514 -1.22309e-18)
(1.92969 5.54434 8.15808e-19)
(1.56803 5.77531 0)
(1.85551 5.76765 0)
(1.6696 5.82743 -3.00038e-18)
(1.72602 5.67613 0)
(3.16114 4.93113 0)
(2.84823 4.52178 -7.12299e-18)
(2.84175 4.56586 -4.01886e-19)
(2.85032 4.83724 0)
(2.89341 4.75264 1.07147e-17)
(3.81202 4.1797 -1.7385e-18)
(3.8504 4.76983 0)
(3.76765 4.67455 1.935e-18)
(3.36895 4.70537 0)
(3.33607 4.43481 0)
(2.78754 5.38189 -5.56578e-18)
(2.69817 5.33836 -3.23001e-18)
(2.59567 5.1506 5.29427e-18)
(2.60567 5.21667 -1.79235e-18)
(2.76409 5.49084 0)
(2.66665 5.45591 2.39887e-18)
(2.93718 5.47941 -3.39347e-18)
(2.86802 5.47656 -1.86538e-19)
(2.44687 5.32119 0)
(2.54127 5.24881 -2.18497e-18)
(2.73825 5.34949 0)
(4.11227 1.09646 0)
(3.95352 0.898877 0)
(3.72575 1.00547 0)
(4.07384 1.13144 -1.12645e-17)
(3.92923 1.14974 6.63995e-18)
(4.53975 0.32786 -5.30139e-18)
(4.55868 0.550585 0)
(4.42874 0.542958 3.21134e-18)
(4.30927 0.363455 1.09063e-17)
(4.35349 0.36431 -6.83745e-18)
(2.93202 6.47608 1.31508e-18)
(2.97254 6.22428 0)
(2.92078 6.42826 3.9068e-18)
(1.67634 6.65341 -4.1227e-18)
(2.30927 5.35095 -5.63337e-18)
(2.68656 4.16702 8.72424e-18)
(2.82198 4.38008 0)
(2.40644 3.38192 -2.68296e-18)
(2.53542 3.47757 1.3989e-17)
(2.14254 2.97309 -4.2079e-18)
(2.61561 2.80758 4.3117e-18)
(3.18106 2.70546 9.35322e-18)
(3.33849 2.7539 0)
(3.05733 3.21794 0)
(2.78151 2.908 0)
(4.79989 2.85858 7.5634e-19)
(4.34599 2.64651 -9.08487e-18)
(4.52633 2.83303 5.81495e-18)
(4.66202 2.44719 -6.90684e-18)
(5.01643 2.28827 0)
(5.17878 2.73134 -1.45148e-18)
(4.02378 1.89428 -1.50555e-17)
(3.99766 1.8119 -1.9901e-17)
(3.82308 1.89296 1.22053e-17)
(3.76079 1.70709 -1.30353e-17)
(3.99487 1.54456 -9.85714e-18)
(3.85965 1.53422 1.20258e-17)
(5.02866 0.024086 -7.47282e-18)
(5.02469 0.0243856 1.38181e-17)
(5.04018 0.0187075 9.75901e-18)
(5.04662 0.0199384 -1.12527e-17)
(5.04588 0.0487934 0)
(5.02937 0.0472364 -1.85368e-17)
(0.244071 6.30088 1.12793e-19)
(0.202959 6.3238 0)
(0.361369 6.28811 7.06938e-19)
(0.397334 6.32149 -5.58252e-19)
(0.3003 6.34435 -3.30605e-19)
(0.280381 6.31995 0)
(0.00225067 6.38559 0)
(-0.0109996 6.37038 5.92094e-20)
(-0.0195988 6.36018 -5.49979e-20)
(-0.0295147 6.36834 2.115e-20)
(-0.0169475 6.42393 7.59502e-20)
(-0.00457186 6.44421 1.20561e-21)
(2.2338 5.38797 -6.91237e-18)
(2.13864 5.48085 7.40651e-18)
(1.95467 5.95721 -6.65032e-19)
(2.04123 5.64028 2.6616e-19)
(3.03448 5.92475 0)
(2.52725 6.36075 3.28094e-18)
(2.71913 6.36122 -3.14958e-18)
(2.19592 6.07564 6.77277e-19)
(2.51969 5.63012 0)
(2.63225 5.63905 0)
(1.57116 5.64837 7.72236e-18)
(1.49205 5.68227 1.18408e-17)
(1.64097 5.72284 -8.24468e-18)
(1.36476 5.70897 -1.6021e-18)
(1.37794 5.8333 2.42191e-18)
(1.0833 5.87453 -6.16732e-18)
(2.60639 5.48411 -7.70191e-18)
(2.7518 5.4874 0)
(2.68969 5.49037 -7.2074e-18)
(2.5039 5.44756 0)
(2.48503 5.41376 0)
(2.25004 4.92158 -5.95866e-18)
(2.56508 5.41749 -4.07773e-18)
(2.374 5.48298 3.98534e-18)
(1.63951 3.41029 0)
(2.2344 3.6313 -4.96442e-18)
(2.53905 3.97292 -5.4851e-18)
(1.96515 4.57842 0)
(1.67202 4.9456 4.27828e-18)
(1.63496 4.78026 0)
(3.4193 3.41624 -1.32133e-17)
(3.76089 3.31009 1.87118e-17)
(3.77386 3.15374 -1.95836e-17)
(3.31664 3.22806 -1.77469e-18)
(3.54405 3.02415 -7.65158e-18)
(2.57118 5.23723 3.21809e-18)
(2.5622 5.09975 -6.24717e-18)
(2.29828 4.99613 9.3283e-18)
(2.5614 4.73297 -6.36846e-18)
(2.67616 4.98561 -5.6962e-18)
(2.67405 4.94728 -5.63568e-19)
(2.65371 4.9418 5.18561e-18)
(2.59982 4.84131 5.12832e-19)
(2.64558 4.97198 2.83958e-18)
)
;

boundaryField
{
    wall-4
    {
        type            noSlip;
    }
    velocity-inlet-5
    {
        type            fixedValue;
        value           uniform (5 0 0);
    }
    velocity-inlet-6
    {
        type            fixedValue;
        value           uniform (0 5 0);
    }
    pressure-outlet-7
    {
        type            zeroGradient;
    }
    wall-8
    {
        type            noSlip;
    }
    frontAndBackPlanes
    {
        type            empty;
    }
}


// ************************************************************************* //
