/*--------------------------------*- C++ -*----------------------------------*\
| =========                 |                                                 |
| \\      /  F ield         | OpenFOAM: The Open Source CFD Toolbox           |
|  \\    /   O peration     | Version:  4.0                                   |
|   \\  /    A nd           | Web:      www.OpenFOAM.org                      |
|    \\/     M anipulation  |                                                 |
\*---------------------------------------------------------------------------*/
FoamFile
{
    version     2.0;
    format      ascii;
    class       surfaceScalarField;
    location    "9";
    object      phi;
}
// * * * * * * * * * * * * * * * * * * * * * * * * * * * * * * * * * * * * * //

dimensions      [0 3 -1 0 0 0 0];

internalField   nonuniform List<scalar> 
1300
(
18.7548
9.37738
-20.619
18.7548
-23.0399
9.37738
-22.1604
22.1604
-6.7461
6.7461
9.37746
9.37731
-16.191
16.191
-14.8056
14.8056
-15.0483
15.0483
-8.78883
8.78883
-8.58245
8.58245
9.08244
-9.08244
-18.8264
18.8264
-9.58796
9.58796
-19.603
19.603
16.1554
-16.1554
-15.2189
15.2189
-3.06784
3.06784
-2.56429
21.3191
16.1905
16.1905
-13.5355
13.5355
-7.88722
7.88722
10.4378
-10.4378
31.0662
-31.0662
-10.4472
-12.0588
4.96048
-29.9968
-18.0794
-18.0794
-14.0674
14.0674
-4.69001
4.68737
15.9856
-15.9856
-6.88882
6.88882
-22.5176
0.357274
-22.5176
22.0274
0.132956
22.0274
-7.44483
0.698728
-7.44483
20.7601
-20.7601
5.939
0.807098
5.939
16.0653
-16.0653
-9.3797
18.7572
9.37506
-9.37512
30.6942
-9.37964
18.757
-17.0686
17.0686
-16.9054
0.714357
-16.9054
15.6278
0.563241
15.6278
-19.3773
19.3773
-14.8786
0.0729983
-14.8786
14.787
0.0186288
14.787
16.1871
-16.1871
-15.2892
0.240883
-15.2892
14.7221
0.326242
14.7221
0.56233
8.81505
-9.93971
14.6271
-8.81505
0.0262281
8.75194
0.0368871
8.75194
-8.64581
0.0633579
-8.64581
8.46734
0.115111
8.46734
9.7454
-0.662961
9.7454
-8.96169
-0.120752
-8.96169
-11.7121
-12.3852
-19.0958
0.26938
-19.0958
-9.95228
0.364323
-9.95228
9.29082
0.297144
9.29082
-12.1443
12.1443
-21.1632
1.56012
-21.1632
16.1092
0.0461942
16.1092
9.36917
9.3856
28.1239
-28.1239
11.9685
-15.0183
-0.200625
-15.0183
-15.5342
-15.532
15.5342
-0.31534
-4.09356
1.02572
-4.09356
16.1531
0.0373596
16.1531
14.2897
0.432362
-14.2897
0.754248
18.0286
-18.0286
10.2558
3.27966
10.2558
-9.5774
9.5774
8.28184
0.185504
-8.28184
0.394622
10.3662
0.0716228
10.3662
-10.3871
-0.05064
-10.3871
11.7631
-23.8219
-12.1436
18.475
0.351452
-18.475
0.395549
15.9971
-0.0114408
15.9971
-15.845
15.845
-16.0053
0.0196492
-16.0053
-7.07097
0.182154
-7.07097
6.86175
0.0270686
6.86175
-21.9218
-0.595856
-21.9218
-21.8109
0.647709
21.8109
0.216538
8.0202
-8.0202
-8.23296
0.78813
-8.23296
-21.3829
-0.538848
21.3829
-0.62287
-20.8384
0.0783341
-20.8384
-16.0343
0.0290106
16.0343
0.0309758
16.1083
0.044815
-16.1083
0.0430178
-9.37154
18.7571
-9.38322
18.7583
-16.0542
-1.0144
-16.0542
17.8471
-0.778517
17.8471
18.1265
1.47657
-18.1265
1.22109
15.2598
0.367947
15.2598
-19.1913
-0.186004
-19.1913
19.4774
-0.100047
19.4774
15.0188
0.241066
-15.0188
0.140136
14.8167
-0.029688
14.8167
16.3539
-0.166771
16.3539
-16.0675
-0.119657
-16.0675
15.6286
-15.6286
15.4812
0.147401
-15.4812
0.19195
-18.4051
18.3545
-0.0346538
-18.3704
8.71728
8.71728
9.4779
0.267504
9.4779
-8.97457
0.0128778
-8.97457
11.5814
-23.725
12.2051
-23.9171
12.5402
-42.5369
12.0158
-24.401
19.4365
-19.4365
19.3024
0.134138
-19.3024
0.20658
-10.0087
0.0563751
-10.0087
-11.1991
-0.945196
-11.1991
13.3305
-1.1862
13.3305
-15.9929
15.9929
-16.0549
0.0620427
16.0549
0.0542559
14.8921
-0.0753708
-14.8921
-0.126192
4.94136
0.997644
-4.94136
0.847792
19.087
-1.0584
19.087
-17.1419
-0.886707
-17.1419
-10.2616
0.252932
10.2616
-0.00577869
-9.90881
0.331415
-9.90881
-18.541
0.170569
-18.5041
-10.2166
-10.2166
3.85082
18.4779
-16.0168
-0.0506925
16.0168
-0.0196789
15.9222
0.0707032
-15.9222
0.0772158
-15.7552
0.126666
15.7552
0.0897491
-7.29505
0.224084
-7.29505
-7.21607
7.21607
-6.9781
-0.237968
6.9781
-0.116352
8.5196
-0.499402
8.5196
8.7568
0.534011
-8.7568
0.523848
-20.3754
-0.463016
-20.3754
18.4504
-0.603358
18.4504
-16.639
-0.502909
16.639
-0.285145
-0.0333288
18.3878
-8.68395
0.0381424
8.68395
-18.4594
18.4976
-8.10733
0.812274
8.10733
1.37057
9.26026
0.317132
-9.26026
0.285695
19.4987
-0.0212787
-19.4987
0.0621655
-10.3806
-0.818534
-10.3806
-14.7142
-1.33996
14.7142
-1.38368
-18.8665
-0.266845
19.1334
-18.7514
10.1757
0.190511
-10.1757
18.6881
-7.56618
-0.454017
7.56618
-0.350118
9.11788
-0.598274
9.11788
20.1106
-1.02357
-20.1106
-0.264776
-18.8831
-0.308238
18.8831
-0.432673
-9.70495
-0.675645
9.70495
-0.587076
-21.2856
21.323
9.40858
-11.591
-12.2308
-27.1231
9.35393
9.40321
21.3225
-26.423
-16.1139
-26.0275
12.2959
-12.0102
-17.2155
16.5526
37.1209
-37.0426
-28.6742
28.7285
31.8186
-31.7877
9.38853
9.36863
38.1419
-37.4276
-39.5977
38.5833
36.235
-36.162
40.9834
-41.1694
-47.0399
47.0186
-28.0438
28.2846
-32.5355
32.4159
-33.3566
33.0714
-11.4802
-12.437
34.1964
-33.927
41.4787
-41.6793
-40.5439
42.104
16.8608
4.46213
16.9057
-9.37974
18.7683
-9.37721
18.7858
12.1422
-23.6224
11.5828
-23.8136
21.4902
19.9885
-21.1748
-5.94821
-28.9792
28.9678
-28.6022
28.692
42.8426
-42.4854
-9.39032
18.759
-9.36796
18.7712
-16.8916
-11.7826
16.8454
4.47707
21.0061
13.1903
-21.3575
-4.66996
-37.6711
36.6475
-39.1048
38.2181
-1.25679
9.60867
-8.35188
6.63043
-2.04546
11.6541
10.2504
10.2633
9.68455
-9.36741
2.32562
-10.6775
-10.2829
-12.7155
13.5036
12.7616
-11.9545
28.7615
8.35939
28.1386
-26.7661
-10.2764
-27.2292
18.9407
9.78773
19.0028
20.1131
11.7055
20.1421
15.0699
-15.1012
0.0312234
-15.1234
30.1934
3.65778
-26.906
-22.429
24.2427
13.8992
24.8059
-26.2973
-11.1302
-25.0762
-23.6592
-15.9385
-24.9992
25.4864
13.0969
24.7078
-30.5699
30.1372
23.9056
12.3293
23.9243
-23.9502
-12.2118
-23.8101
37.8376
-9.84002
-27.9976
-26.5591
-20.4808
26.6592
14.3242
28.6853
18.3333
28.7475
13.1516
24.686
-27.4758
6.99503
-18.8391
-9.20466
-18.6471
18.1963
10.0883
18.5226
-20.3739
-12.1616
-20.4246
-20.6098
-12.7468
20.7766
11.6393
-21.0834
-18.0214
21.5863
11.4851
11.3909
-27.5048
13.0101
-25.4471
-23.8873
-10.0397
-23.6807
14.7529
9.30056
-24.0535
-8.86946
38.6313
-18.6428
32.6831
-25.813
-15.8663
-25.9392
-32.1331
-8.41072
-31.4854
-21.2824
20.4638
-22.0955
20.9093
37.2374
-20.7801
-16.4574
-19.5221
-12.2656
19.4791
-2.57342
-18.443
18.4742
0.325295
19.1111
23.5732
20.9998
-18.9932
-9.60898
-18.916
18.8285
9.86342
18.9552
31.9573
10.8853
32.0903
-30.7174
-11.768
-31.3132
19.6559
-19.4738
14.5989
-14.346
25.375
12.8431
-24.3166
-13.3545
29.3652
-14.7125
-14.6527
-20.0404
19.1828
0.857648
-8.3863
-1.75587
1.31197
-9.84328
-7.37224
9.96403
0.299251
19.482
12.1098
-9.09623
9.42765
10.0371
10.2226
-0.0602358
12.5254
-11.7131
26.6447
-12.6751
-13.9696
25.6767
-26.2156
-5.63651
-26.3666
20.7301
1.92305
8.1459
-7.12018
-10.1775
-2.53799
-9.65367
7.63495
5.12661
8.63259
4.86054
8.6431
-14.2183
2.61263
11.6057
-9.35779
-9.34183
-17.7428
-5.15401
22.8968
26.4687
10.1788
-26.2039
-1.02524
13.5723
-13.2752
-3.7643
-13.9785
10.2585
-14.0228
-16.9766
-9.49258
26.4692
-16.5043
-2.41168
16.4336
2.56913
-18.6666
-10.3126
18.647
1.49514
-15.2278
30.2735
-15.0458
-24.8367
12.6063
17.5871
22.394
-23.6864
12.0684
11.618
-6.09935
20.7448
4.06114
21.1127
-32.9319
21.8017
27.4638
14.6401
-28.9404
3.86418
-29.0677
33.7806
-29.9155
-3.86512
16.9854
16.7953
19.3193
17.9181
-13.8874
33.2067
-5.07288
-24.8426
34.1406
-19.5005
20.9755
-40.476
-38.8937
14.051
-25.4286
31.5668
-6.1382
-9.46276
-21.1072
34.8914
-2.99733
-31.894
21.7105
-18.9161
-19.3926
38.3087
-28.7562
31.6043
-9.12334
-22.481
-25.7595
-15.4099
26.0678
4.06949
-35.8601
42.8551
-11.1741
20.8149
3.10934
20.7852
13.5583
-21.3295
7.77119
15.1979
-24.3212
8.61258
-29.942
-18.22
35.131
-16.911
-28.2598
-25.2877
-2.97209
7.568
35.2871
-25.9013
20.0867
5.81457
16.2772
2.67798
-16.4246
-2.22251
1.62164
21.728
-23.3496
20.1442
20.5766
16.1635
5.5645
18.7706
10.1972
-18.7509
-1.67373
-20.0105
7.2637
-8.37119
-17.5398
24.8035
-19.5809
2.04109
-13.0484
-17.1018
30.1501
-22.253
14.9684
15.3051
24.8318
-23.794
6.69222
-11.7357
-12.0584
12.8886
-21.2598
9.43989
15.3636
20.925
2.90362
17.793
17.338
-27.0936
1.64651
30.5283
-25.8583
6.32454
22.4229
-26.4113
1.12361
-22.5571
3.94587
-22.5886
-20.1076
23.3193
-31.73
-17.1567
29.1254
2.96489
-29.3419
-2.14353
-14.805
-6.4774
-15.4806
-6.93557
-15.1599
-20.823
-4.35872
-16.4642
16.1051
-16.5014
-8.49782
17.885
3.02423
-17.5498
17.0958
-17.8159
17.2177
0.522843
17.9514
21.5226
9.25707
-11.852
21.1091
-23.0104
33.8957
-40.0299
17.0195
19.9485
-31.7165
-20.0814
12.0699
7.58602
12.097
21.2543
-23.8947
2.64046
-23.1744
27.8011
-4.62678
-36.1109
12.9365
-14.8566
13.1986
1.40039
13.2549
3.13997
11.7097
-14.8496
-11.206
-11.2118
-11.2899
-16.5197
27.8095
5.50449
-16.3068
10.8023
-16.6156
22.1201
-0.646487
-15.6603
25.2026
-13.4929
26.603
-17.2621
9.3409
15.8722
26.9502
-11.0779
21.036
-8.19293
8.83813
-19.916
-7.68153
-14.4961
24.5844
-15.654
17.6951
-1.23481
18.9299
-19.2786
4.56605
-3.11507
17.4615
18.2157
20.413
-14.8485
14.1557
-22.3487
-5.76031
-19.445
-4.08145
-0.247059
-18.4004
18.6475
17.9047
-18.1517
-9.26605
19.4179
-10.1518
15.9904
-9.91208
-6.0783
-9.55039
-9.9234
9.32631
3.19907
19.1895
1.39066
-11.3027
-10.3224
-8.95187
15.4594
11.1853
-8.77129
9.62894
7.45932
0.686582
2.94914
5.68345
9.07304
-6.1239
0.588942
8.4841
-6.53124
9.72278
3.84957
-10.2568
0.603117
-6.61131
16.8698
4.99439
-10.121
3.9971
4.67487
-17.35
23.7192
-12.6114
-11.1078
28.3941
5.5182
-18.1296
20.8484
-18.9254
11.4429
-16.5969
-6.68671
-25.6121
-17.2527
-11.897
22.6993
-15.9125
26.0913
5.72274
-25.066
30.7888
-17.4624
7.96978
-14.3427
18.1922
-4.65772
-9.68495
13.4794
12.9898
-14.326
0.347444
-0.846575
11.1181
-11.9647
-2.90465
-12.2624
-22.4949
23.99
-10.3197
22.3881
10.7894
-9.33277
31.7209
8.98367
-18.3164
-15.8531
-18.2647
-6.69843
15.6956
-3.13756
-20.6725
-25.6185
20.4314
0.681303
-32.899
36.5847
-3.68567
-18.9998
-2.80185
19.7872
-26.6286
2.30742
-18.0161
18.5687
22.6298
23.3111
-31.1568
-0.737292
-18.0598
3.92073
-21.9805
20.716
-9.61983
23.6709
-26.6111
18.1133
-23.5869
19.8057
-2.1748
20.1598
-12.3886
7.83777
-23.2477
-19.1782
24.9356
-12.6062
28.0449
-14.5284
42.5733
-25.7024
24.649
17.9243
-4.97853
-20.9607
-24.3982
19.4197
0.250803
21.036
24.2165
-14.0193
22.5427
10.8787
-22.6143
-10.3811
-31.6384
9.02408
-16.3333
-9.24813
18.2722
15.5837
18.2617
6.21387
-16.0392
24.0978
-27.0699
-7.18679
-12.9208
24.0354
-4.61575
14.4195
-27.3404
-8.16911
17.9884
-1.26904
-16.7194
2.79166
-19.9484
8.17558
-28.124
23.5544
-25.6979
5.04134
-19.8979
-12.5085
-12.8586
-5.17716
-12.6388
-16.8941
11.7169
-3.9576
13.1382
-19.5942
18.3251
-8.20696
19.9239
-13.2594
-2.22115
13.8465
3.37114
23.295
2.22384
-22.3052
-10.5619
20.1836
-9.6217
4.89747
-16.1766
4.00704
11.6126
16.7815
-32.3427
0.626266
-21.6789
-9.06422
16.6502
10.3537
28.2583
4.36359
18.3083
-1.65801
22.6718
10.439
10.3226
-14.3807
17.0211
4.26684
21.2864
-4.2657
13.6066
8.98923
9.35355
3.92165
11.2105
7.0052
15.7766
0.92695
-10.2849
8.1158
-17.0677
-3.18694
-16.8002
-0.247618
10.3485
-10.5961
16.1727
-4.98742
6.55103
-0.170985
-10.336
10.507
-14.1406
-9.64943
-1.16533
-7.69035
11.6875
9.17943
-10.5221
-3.61844
1.66869
-18.9214
14.9282
-14.5808
-1.59097
29.1978
-13.1774
1.21269
-5.2076
-11.0498
-13.5877
12.9846
30.2565
1.46442
15.2107
25.4544
15.1418
1.12258
15.2021
-21.3403
-14.74
-22.0776
-1.36158
18.4256
7.20023
28.0869
25.1245
20.5088
-6.83159
-33.9015
26.6866
-9.66553
22.0599
-5.34051
-22.7835
22.8686
11.0271
-25.8334
0.135517
-22.648
-32.3135
-1.09517
19.4203
-22.1999
19.9787
13.5013
2.96294
-10.5713
-2.28728
10.8093
-0.486625
22.1852
-1.20694
-16.6622
17.8691
-9.14156
5.95463
1.14298
8.48596
11.65
6.66256
-9.99963
-20.5958
-9.49546
-7.85456
-20.6033
2.29357
-11.473
12.6416
-6.68699
6.56332
11.1821
17.7332
-3.64241
-14.5093
13.7942
-7.23092
10.5023
)
;

boundaryField
{
    wall-4
    {
        type            calculated;
        value           uniform 0;
    }
    velocity-inlet-5
    {
        type            calculated;
        value           uniform -18.7548;
    }
    velocity-inlet-6
    {
        type            calculated;
        value           uniform -9.37738;
    }
    pressure-outlet-7
    {
        type            calculated;
        value           nonuniform List<scalar> 8(20.619 23.0399 22.506 25.0363 24.0973 23.9067 23.7865 24.556);
    }
    wall-8
    {
        type            calculated;
        value           uniform 0;
    }
    frontAndBackPlanes
    {
        type            empty;
        value           nonuniform 0();
    }
}


// ************************************************************************* //
