/*--------------------------------*- C++ -*----------------------------------*\
| =========                 |                                                 |
| \\      /  F ield         | OpenFOAM: The Open Source CFD Toolbox           |
|  \\    /   O peration     | Version:  4.0                                   |
|   \\  /    A nd           | Web:      www.OpenFOAM.org                      |
|    \\/     M anipulation  |                                                 |
\*---------------------------------------------------------------------------*/
FoamFile
{
    version     2.0;
    format      ascii;
    class       volScalarField;
    location    "3";
    object      p;
}
// * * * * * * * * * * * * * * * * * * * * * * * * * * * * * * * * * * * * * //

dimensions      [0 2 -2 0 0 0 0];

internalField   nonuniform List<scalar> 
918
(
7.83727
16.2863
0.0119959
7.85928
0.00477082
16.2339
-14.4187
14.2483
7.74389
-2.34236
-0.108274
8.42464
16.0005
15.7104
4.84167
0.07235
13.2003
-10.8312
7.75688
-0.0156119
16.6837
7.77549
7.78707
7.73839
10.0778
16.7649
15.7919
-0.0312966
-0.0149098
-0.0352861
-0.00671318
-0.0170721
0.0227647
16.0376
16.1245
16.1625
7.51699
6.33938
-11.4201
-13.1244
-10.7452
-14.6397
13.8585
14.1038
-7.47539
14.304
14.734
7.66735
7.74341
7.7499
7.74988
7.74513
7.75258
2.63761
-2.69266
-3.59525
-1.62543
-1.42894
0.551685
-0.189553
-0.293742
-0.0667074
-0.0562432
6.86035
8.24382
8.1519
8.60522
8.80503
16.1856
16.1397
16.1834
16.0389
16.0661
15.9604
15.9126
15.6997
15.7076
15.7316
15.8356
2.49192
-2.78714
7.84359
9.38839
0.00207996
0.0994151
0.153185
12.6396
12.779
12.9115
13.2413
7.81697
-10.1576
-13.9159
7.75392
7.74966
7.78999
7.799
7.77526
7.77567
0.000164626
-0.000523071
-0.0414612
-0.0122608
-0.00363484
16.0436
15.8609
7.74
7.71962
8.99937
9.66082
9.33569
3.39264
10.5214
11.2938
14.5844
15.9046
16.2656
16.1339
15.7375
15.6506
15.8629
15.9008
0.0264055
0.00701454
0.0710848
0.0554025
0.0641105
7.4682
7.41538
7.7254
7.53848
7.56639
5.73444
4.85909
6.79432
7.17366
-9.25473
-11.0268
-11.4433
-11.4239
-14.8691
8.39577
13.6131
13.7318
-7.25173
-5.18854
-8.72344
-4.85508
-6.42736
7.58261
7.65671
7.62614
7.69222
7.66707
7.66162
7.77353
7.75452
7.76549
2.98141
3.83134
2.1531
1.96337
-6.71896
-3.91034
-6.36003
-1.06675
-0.922491
0.641978
0.790752
0.477245
0.426852
-0.635243
-0.391415
-0.563996
-0.0281457
0.0399152
6.72619
6.49095
7.01637
7.11434
7.90129
7.91441
8.05059
8.00529
15.835
15.8637
15.8799
15.8369
-8.40443
-22.2186
11.2986
12.1761
-0.0131176
0.00301545
-0.00428296
0.00680095
0.0110286
0.00722992
0.246443
0.209551
0.202026
0.193095
12.2344
12.4939
7.59196
8.48576
6.95659
6.94594
7.74494
7.73576
7.74652
7.73477
0.029314
-0.00161774
0.027467
14.7308
15.2934
15.2132
2.55132
0.347845
4.49594
5.05052
12.0437
11.4902
12.0348
14.9806
15.1344
15.9009
15.9394
15.9396
15.9562
16.0279
16.0554
15.9985
7.21005
7.36456
7.27466
7.74122
7.73362
7.73145
7.89015
7.78599
7.79076
4.21428
2.86216
7.90711
7.68163
7.39226
7.62925
8.232
8.62533
13.0854
13.3143
13.4889
-3.34779
-4.65878
1.72309
1.47064
5.6314
6.22973
5.91825
15.7856
15.7317
15.7975
15.7579
15.7151
15.7396
2.9238
-4.07562
-0.457379
14.3033
13.1483
13.6997
0.379932
0.30188
0.318433
8.12267
8.7978
4.17423
5.70397
5.47705
15.4831
15.6118
15.5803
15.3518
15.4537
15.6591
15.6748
8.14676
7.91514
8.17313
8.39326
8.78286
-0.499105
-2.26444
-2.85555
0.873942
1.20906
1.03624
8.44992
8.50509
8.84341
7.73111
7.73253
0.0435065
0.0684699
7.76559
7.76781
0.0291227
0.0603697
13.4255
5.91985
0.553222
7.74426
7.61974
7.73691
-1.64266
2.53607
-0.104416
0.642844
0.356842
8.25057
7.06189
6.33851
0.0373936
0.0950646
0.033501
-5.24542
7.71625
7.68541
7.73041
7.73145
7.73816
0.0343572
0.0422114
0.0117913
0.0404989
0.0232209
0.0156307
7.47176
7.76406
-4.59486
7.74005
7.75419
7.74969
7.7467
7.75536
7.75219
0.083748
0.044659
0.0778572
2.24021
4.89047
15.5253
16.9301
14.4773
13.1208
11.6166
14.5655
15.1651
14.2615
15.6424
12.9498
13.6484
1.58223
-1.35396
2.18076
0.718279
7.72868
7.72825
7.61233
7.57032
7.71668
7.7079
7.73103
7.73045
7.74415
7.74376
-0.992157
-1.19491
-2.02246
-2.95577
2.80907
3.67385
1.92884
1.9132
1.08093
-0.0462431
-0.0393759
-0.133743
-0.250648
0.310567
0.36986
0.470424
0.468323
0.264611
0.273125
0.262554
0.291097
0.306098
8.10685
8.05493
8.27519
8.48772
7.17526
7.2092
6.71749
7.03711
6.83005
5.64892
6.36205
5.87439
0.0397891
0.0469724
0.0236582
0.131026
0.174286
0.0510669
0.0466006
0.0343593
0.0215542
0.0384221
0.0195886
0.0519669
-4.58723
-6.51209
7.2202
6.02124
3.04679
7.64356
7.65596
7.64524
7.70896
7.71899
7.71987
7.70937
7.69231
7.73188
7.74155
7.75145
7.81424
-3.07224
-6.0976
-2.66656
-4.58495
6.10045
11.4425
5.21259
3.92326
3.75964
8.75391
13.2463
14.8581
17.3003
16.9357
8.15014
10.405
8.80643
10.8835
9.72946
15.1842
15.5217
15.6971
15.4803
15.0628
4.24703
8.74944
-2.9085
-2.60015
1.20536
-0.598678
15.1327
12.5476
12.7789
13.4345
14.1405
12.7971
12.4476
12.3874
13.1092
13.1929
8.32979
3.26322
2.3494
1.74326
12.225
9.38947
10.7322
8.68502
7.73739
7.72648
7.74285
7.53799
7.57001
7.5348
7.68639
7.71494
7.69483
7.71065
7.68384
7.68647
-0.986368
-0.863662
-1.50748
-3.23996
-3.19885
-4.27751
-2.37478
0.602238
0.436435
2.80377
3.82442
-0.171321
-1.90171
-1.74189
-0.322884
1.21807
1.33616
0.729557
1.27478
1.42229
1.12344
1.67005
1.61204
0.0592484
0.197992
-0.0460541
-0.0576377
0.658167
0.804798
0.843138
0.227712
0.179094
-0.00340333
-0.00898332
0.428798
0.105668
0.281635
0.147807
0.112646
0.135431
0.142289
0.211348
0.189012
0.219382
7.83224
7.95916
7.86647
8.40635
8.5629
8.90402
8.42362
7.46406
7.31673
7.38763
7.09009
7.20495
7.23701
7.413
7.7756
7.89939
7.68157
7.73808
7.61146
7.59832
7.34992
7.44452
7.17878
6.81044
6.55825
0.0766868
0.0639194
0.0567009
0.0441466
0.0332487
0.00985723
0.222098
0.165933
0.189213
0.186839
0.209968
0.0561315
0.0841348
-2.2953
-0.47671
-5.22019
-5.52893
-7.19187
6.99471
7.81533
5.93885
4.89743
5.12229
6.38008
6.79308
4.06056
5.06594
5.01529
7.80459
7.81109
7.69473
7.69468
7.67525
7.68306
7.69261
-1.23014
0.734366
0.298569
1.59322
6.23644
6.78522
3.91409
4.73734
5.49118
4.96194
11.3531
11.7576
10.3338
10.927
10.9709
6.87782
8.72955
9.91158
8.84502
9.87231
10.4492
9.49985
10.2273
8.89078
8.00498
7.97394
6.54694
7.23242
6.73894
6.20275
8.06985
7.62809
7.80827
7.7143
8.10962
9.09681
8.86308
9.26483
9.7222
8.00798
7.1027
7.42686
8.00387
6.9818
7.22951
7.62392
3.85501
4.56248
5.01791
4.2919
5.50243
4.85751
4.98837
4.49868
5.11339
3.33312
3.35064
1.18525
7.37173
13.5044
14.6016
15.1053
14.0716
13.5243
13.6656
14.5323
14.6309
11.9021
12.3891
12.3795
11.4131
12.0828
12.6869
12.6695
8.14201
6.18044
5.99206
5.07476
2.07555
2.90018
7.12224
5.64341
3.92213
3.77583
7.68247
5.08196
6.57379
7.68674
6.32753
4.84641
9.7963
11.2209
11.0922
10.4641
8.43051
8.77632
9.19624
9.96517
10.772
11.6014
7.6198
7.64592
7.6608
7.65061
7.61834
7.66526
7.70322
7.70638
7.67512
7.6922
7.70743
-0.265389
-0.179659
-0.628045
-0.466294
-0.311904
-0.557168
-0.0672758
-0.462903
-0.0886389
-0.131115
-0.487123
-0.815257
-0.608917
-0.307314
1.3121
1.60911
1.53468
0.905558
2.1943
3.45111
3.99042
3.33711
1.75435
2.12071
2.62495
0.567478
0.575052
0.487307
0.642757
0.638162
-0.00476446
0.0432922
0.110129
0.143429
0.0770296
0.0950746
0.0402812
0.047831
0.0711284
0.0292083
0.038132
7.47565
7.40685
7.50854
7.39843
7.35531
7.58244
7.60142
7.67955
7.75654
7.82426
7.68239
7.79282
7.84692
0.143258
0.114116
0.128308
0.0648097
0.108249
0.0657054
0.039556
2.71629
0.614378
1.85127
-0.0362979
-3.29753
-1.89272
6.02385
7.27061
7.64889
7.31679
6.48126
6.77812
7.5757
7.89353
4.14758
5.4411
4.706
7.38485
7.16979
7.95614
5.68039
3.34338
5.60203
6.03116
4.12726
4.99019
4.61845
2.45586
2.94785
3.76646
5.16168
5.48653
5.02936
4.70214
4.54152
5.68286
5.3757
6.61629
7.22949
3.33185
3.0093
1.86733
11.0884
11.5604
11.9243
11.3696
11.9336
9.92471
9.71186
10.1622
10.4766
10.2555
2.80698
3.26673
2.12128
5.86838
6.7361
7.80367
6.6799
11.659
10.5677
13.1274
12.9515
11.7426
10.8316
10.7122
11.8167
5.07542
7.70995
6.91194
7.36273
5.56654
3.87833
10.2944
10.3261
11.0826
11.7206
11.0184
11.8022
7.60476
7.62406
7.62554
7.59446
7.54056
7.58041
0.494184
0.144828
0.729333
0.46943
0.0636328
-0.0524277
0.154655
0.102969
0.107046
0.122662
0.144214
0.164546
3.26506
3.57055
0.901738
2.26321
-1.00132
-2.06428
-2.86461
0.186766
1.7039
1.09693
4.59858
5.98827
5.14135
5.70496
4.39392
4.90794
7.24582
6.94681
7.49298
6.10674
6.24798
6.46763
4.22441
5.47998
11.3216
10.6892
8.91424
8.0704
8.22088
10.0448
8.75881
7.7146
8.53352
9.73445
9.67918
4.85059
4.83577
5.70568
6.3124
4.74079
5.19944
4.82735
5.63379
5.13831
)
;

boundaryField
{
    wall-4
    {
        type            zeroGradient;
    }
    velocity-inlet-5
    {
        type            zeroGradient;
    }
    velocity-inlet-6
    {
        type            zeroGradient;
    }
    pressure-outlet-7
    {
        type            fixedValue;
        value           uniform 0;
    }
    wall-8
    {
        type            zeroGradient;
    }
    frontAndBackPlanes
    {
        type            empty;
    }
}


// ************************************************************************* //
