/*--------------------------------*- C++ -*----------------------------------*\
| =========                 |                                                 |
| \\      /  F ield         | OpenFOAM: The Open Source CFD Toolbox           |
|  \\    /   O peration     | Version:  4.0                                   |
|   \\  /    A nd           | Web:      www.OpenFOAM.org                      |
|    \\/     M anipulation  |                                                 |
\*---------------------------------------------------------------------------*/
FoamFile
{
    version     2.0;
    format      ascii;
    class       surfaceScalarField;
    location    "8";
    object      phi;
}
// * * * * * * * * * * * * * * * * * * * * * * * * * * * * * * * * * * * * * //

dimensions      [0 3 -1 0 0 0 0];

internalField   nonuniform List<scalar> 
1300
(
18.7548
9.37738
-21.1191
18.7548
-22.9938
9.37738
-22.1952
22.1952
-6.8981
6.8981
9.37744
9.37733
-16.3658
16.3658
-15.0451
15.0451
-15.0478
15.0478
-8.78887
8.78887
-8.58064
8.58064
9.11611
-9.11611
-18.9727
18.9727
-9.60381
9.60381
-19.62
19.62
16.1558
-16.1558
-15.7978
15.7978
-3.28016
3.28016
-2.56429
21.3191
16.1905
16.1905
-13.5326
13.5326
-7.86453
7.86453
10.4361
-10.4361
31.7673
-31.7673
-10.6482
-12.1197
4.83117
-29.4693
-18.1626
-18.1626
-14.0674
14.0674
-4.69001
4.68737
15.9872
-15.9872
-6.90115
6.90115
-22.5371
0.341916
-22.5371
22.05
0.145192
22.05
-7.65655
0.758456
-7.65655
20.6674
-20.6674
6.19384
0.704263
6.19384
16.0651
-16.0651
-9.37975
18.7572
9.37501
-9.37497
30.694
-9.3798
18.7571
-17.0306
17.0306
-17.0474
0.681544
-17.0474
15.8308
0.535028
15.8308
-19.5061
19.5061
-15.1113
0.0662788
-15.1113
15.0626
-0.0175788
15.0626
16.1858
-16.1858
-15.2923
0.244549
-15.2923
14.7197
0.328061
14.7197
0.562321
8.81506
-9.9397
14.6271
-8.81506
0.0261952
8.75239
0.0364753
8.75239
-8.64428
0.0636445
-8.64428
8.46329
0.117348
8.46329
9.77927
-0.663166
9.77927
-8.99598
-0.120125
-8.99598
-11.6657
-12.3143
-19.2615
0.288829
-19.2615
-9.78933
0.185522
-9.78933
9.29348
0.310333
9.29348
-12.1585
12.1585
-21.1952
1.57528
-21.1952
16.1093
0.0464797
16.1093
9.36916
9.38561
28.1239
-28.1239
11.9681
-15.5182
-0.279634
-15.5182
-16.1603
-15.607
16.1603
-0.362472
-4.3878
1.10765
-4.3878
16.1533
0.0371673
16.1533
14.2847
0.434955
-14.2847
0.752127
18.0209
-18.0209
10.2545
3.27808
10.2545
-9.58582
9.58582
8.27316
0.19013
-8.27316
0.408632
10.3658
0.0703313
10.3658
-10.3882
-0.0479361
-10.3882
11.7693
-23.8889
-12.1946
18.5923
0.380399
-18.5923
0.429687
15.9982
-0.0110329
15.9982
-15.8448
15.8448
-16.0063
0.0190675
-16.0063
-7.07893
0.177779
-7.07893
6.88259
0.0185646
6.88259
-21.9078
-0.629312
-21.9078
-21.829
0.633766
21.829
0.22099
8.08645
-8.08645
-8.23809
0.58154
-8.23809
-21.3358
-0.571944
21.3358
-0.668483
-20.7339
0.0665072
-20.7339
-16.0341
0.0278049
16.0341
0.0310017
16.1086
0.0447026
-16.1086
0.0435398
-9.3715
18.7571
-9.38326
18.7583
-16.025
-1.00557
-16.025
17.8067
-0.776119
17.8067
18.2126
1.40732
-18.2126
1.16527
15.4757
0.355088
15.4757
-19.2584
-0.247705
-19.2584
19.6454
-0.139337
19.6454
15.2488
0.226899
-15.2488
0.137466
15.1478
-0.0851121
15.1478
16.3544
-0.168592
16.3544
-16.0656
-0.120215
-16.0656
15.6293
-15.6293
15.4846
0.14469
-15.4846
0.192315
-18.4031
18.3551
-0.0340781
-18.369
8.71831
8.71831
9.50318
0.276096
9.50318
-8.99729
0.00130931
-8.99729
11.5957
-23.7903
12.2201
-23.8858
12.3992
-41.8685
11.8699
-24.1842
19.6326
-19.6326
19.4796
0.152983
-19.4796
0.218065
-10.1159
0.326579
-10.1159
-11.2145
-0.943996
-11.2145
13.3359
-1.17736
13.3359
-15.9928
15.9928
-16.0549
0.0621378
16.0549
0.0543974
15.2998
-0.152078
-15.2998
-0.218384
5.2504
0.943437
-5.2504
0.862596
19.0577
-1.03678
19.0577
-17.1427
-0.878253
-17.1427
-10.1107
-0.00522077
10.1107
0.143841
-9.91228
0.326469
-9.91229
-18.5403
0.171273
-18.5038
-10.2169
-10.2169
3.85051
18.4776
-16.016
-0.0495891
16.016
-0.0177964
15.922
0.0707594
-15.922
0.0771664
-15.7554
0.126093
15.7554
0.0894467
-7.30293
0.224002
-7.30293
-7.27071
7.27071
-7.01648
-0.254233
7.01648
-0.13389
8.57659
-0.490142
8.57659
8.92788
0.365599
-8.92788
0.689783
-20.2685
-0.465325
-20.2685
18.4302
-0.623475
18.4302
-16.6399
-0.502782
16.6399
-0.285479
-0.0360295
18.3912
-8.68228
0.0380014
8.68228
-18.4615
18.4995
-8.1218
0.818862
8.1218
1.38138
9.27613
0.309684
-9.27613
0.278839
19.6912
-0.0458315
-19.6912
0.0586653
-10.3993
-0.81525
-10.3993
-14.7082
-1.31683
14.7082
-1.37232
-18.8691
-0.264862
19.134
-18.7517
10.1771
0.18862
-10.1771
18.6881
-7.63193
-0.454517
7.63193
-0.361223
9.16237
-0.585782
9.16237
20.0326
-0.974909
-20.0326
-0.235921
-18.9018
-0.356583
18.9018
-0.471577
-9.73662
-0.662667
9.73662
-0.57425
-21.2855
21.3226
9.40855
-11.584
-12.305
-27.191
9.35354
9.40357
21.3217
-26.0238
-15.8446
-25.5942
12.3183
-12.0395
-17.2874
16.6242
36.9669
-36.9004
-28.674
28.7284
31.8186
-31.7876
9.38886
9.36833
38.1238
-37.4423
-39.6878
38.6822
36.363
-36.2967
40.7296
-40.9773
-46.7352
46.6894
-28.0361
28.2807
-32.5412
32.421
-33.3528
33.0673
-11.4208
-12.465
33.7119
-33.4231
41.4524
-41.732
-40.3757
41.951
16.8611
4.46155
16.9058
-9.37993
18.7688
-9.3772
18.7857
12.2134
-23.6342
11.5769
-23.8818
21.5441
19.9083
-21.1816
-6.00934
-28.9778
28.9667
-28.6026
28.692
42.7582
-42.4163
-9.39047
18.7588
-9.36781
18.7714
-16.8914
-11.7826
16.8449
4.47676
20.6603
13.0516
-21.0407
-4.55348
-37.5579
36.583
-39.0811
38.2028
-1.2876
9.61699
-8.32939
6.57693
-2.02877
11.6458
10.2896
10.2909
9.69016
-9.38048
2.34932
-10.6787
-10.2701
-13.0269
13.6084
12.8637
-12.1595
28.7061
8.26087
28.0376
-26.6454
-10.255
-27.1107
18.9407
9.78764
19.0028
20.1152
11.7034
20.143
15.0702
-15.1009
0.0307213
-15.1235
30.1937
3.65787
-26.906
-22.4293
24.3115
13.8123
24.8465
-26.2419
-11.2004
-25.0766
-23.8155
-15.8723
-25.1323
25.4995
13.1827
24.7234
-30.4765
30.005
24.0054
12.3576
23.9878
-24.0665
-12.2302
-23.929
37.671
-9.86576
-27.8052
-26.3757
-20.3595
26.515
14.2145
28.4547
18.2347
28.5134
13.1204
24.5506
-27.3349
6.97537
-18.8401
-9.19605
-18.6478
18.188
10.0927
18.516
-20.3778
-12.1634
-20.4274
-20.6129
-12.7399
20.7815
11.6395
-21.0791
-18.002
21.5819
11.4854
11.3145
-27.1592
12.8696
-25.3346
-23.5989
-9.82421
-23.3808
14.8683
9.1416
-24.0099
-8.76598
38.6572
-18.7489
32.6478
-25.7799
-15.9522
-25.9983
-32.0139
-8.36177
-31.3801
-21.5174
20.7021
-22.3271
21.1497
37.3243
-20.7359
-16.5884
-19.5225
-12.2651
19.4789
-2.57314
-18.4427
18.4734
0.326109
19.1119
23.5734
21.0003
-18.9935
-9.60902
-18.9164
18.8293
9.86274
18.9554
31.9099
10.8483
32.0551
-30.6856
-11.7306
-31.315
19.6666
-19.4888
14.4815
-14.4867
25.3274
12.8754
-24.2907
-13.2673
29.4089
-14.7278
-14.6811
-20.0884
19.2797
0.808691
-8.4426
-1.86567
1.41449
-9.88159
-7.40576
10.0017
0.289141
19.5688
12.163
-9.10127
9.42773
10.0327
10.2228
-0.0472535
12.5526
-11.7338
26.6288
-12.6097
-14.0191
25.6143
-26.1862
-5.7007
-26.2465
20.5458
1.85137
8.25669
-7.14905
-10.367
-2.65991
-9.6772
7.69087
5.17286
8.63431
4.90412
8.7043
-14.3343
2.69671
11.6375
-9.43013
-9.46276
-17.7314
-5.13957
22.871
26.3774
10.2056
-26.1415
-0.969205
13.5737
-13.2633
-3.72445
-14.0069
10.2434
-13.9679
-17.1003
-9.39039
26.4907
-16.5045
-2.41184
16.4338
2.56908
-18.6666
-10.3112
18.6475
1.49551
-15.2275
30.2722
-15.0448
-24.8365
12.6062
17.5874
22.3939
-23.687
12.0687
11.6183
-6.09956
20.8541
3.99247
21.2092
-32.7758
21.5754
27.4245
14.5264
-28.8318
3.75525
-29.0206
33.7437
-29.7189
-4.02478
17.1297
16.614
19.3609
17.9634
-14.0311
33.3919
-4.86692
-24.852
33.8875
-19.3611
20.7747
-40.1357
-38.7381
13.8862
-25.3711
31.3968
-6.02563
-9.42752
-21.049
34.7987
-3.05089
-31.7478
21.6725
-18.827
-19.4059
38.2329
-28.6928
31.6362
-9.11682
-22.5194
-25.6208
-15.3565
25.9774
4.02762
-35.7159
42.6913
-11.1654
20.8951
3.09275
20.81
13.4958
-21.2331
7.7373
15.197
-24.3138
8.67566
-29.9087
-18.1062
34.854
-16.7478
-27.9304
-25.1222
-2.80822
7.48555
35.2058
-25.7202
19.8366
5.88362
16.2798
2.67557
-16.4245
-2.22329
1.6271
21.7382
-23.3653
20.1431
20.5781
16.1679
5.57035
18.7707
10.1961
-18.7529
-1.67456
-20.0127
7.2728
-8.37317
-17.5459
24.8187
-19.5811
2.03522
-13.0509
-17.0977
30.1486
-22.2469
14.9677
15.3046
24.8304
-23.7934
6.69568
-11.7332
-12.0601
12.8854
-21.2586
9.43595
15.3827
20.9214
2.9194
17.7607
17.0933
-26.9023
1.56773
30.1449
-25.5914
6.32984
22.1836
-26.1664
1.04427
-22.3366
3.81511
-22.564
-20.1948
23.1729
-31.5347
-16.9628
29.0533
3.00184
-29.2743
-2.10589
-14.9686
-6.54876
-15.6313
-6.98239
-15.3447
-21.0135
-4.41348
-16.6
16.2887
-16.6677
-8.46459
18.04
3.10967
-17.5523
17.0978
-17.905
17.3192
0.522391
17.951
21.5227
9.25752
-11.8514
21.109
-22.976
33.8242
-39.968
16.992
19.8332
-31.5639
-20.1348
12.0733
7.59329
12.0919
21.3347
-23.911
2.57622
-23.1384
27.9978
-4.85946
-36.1245
12.9861
-14.7897
13.0613
1.42022
13.3879
3.18064
11.7055
-14.8862
-11.3061
-11.1623
-11.279
-16.5752
27.8542
5.61388
-16.3444
10.7306
-16.7064
22.3203
-0.582206
-15.7622
25.2086
-13.5031
26.6288
-17.2886
9.3402
15.9058
27.0413
-11.1355
21.0416
-8.16618
8.80088
-19.9363
-7.77429
-14.4854
24.5781
-15.6632
17.6984
-1.21273
18.9112
-19.3049
4.57713
-3.13701
17.4411
18.1932
20.4224
-14.8521
14.195
-22.3612
-5.7413
-19.4418
-4.05907
-0.297423
-18.4439
18.7413
17.9064
-18.2038
-9.30066
19.4108
-10.1102
16.0129
-9.95348
-6.05937
-9.56156
-9.92726
9.33756
3.21507
19.2279
1.38154
-11.335
-10.3522
-8.97085
15.5058
11.123
-8.98159
9.79028
7.5671
0.689596
2.96793
5.66638
9.1884
-6.22047
0.620074
8.56832
-6.52898
9.86063
3.71303
-10.2262
0.54903
-6.62498
16.8684
5.01257
-10.1854
3.96496
4.70734
-17.317
23.5754
-12.4601
-11.1153
28.2827
5.53426
-17.9943
20.7122
-18.8608
11.3876
-16.5271
-6.60677
-25.4676
-17.2067
-12.0281
22.7586
-15.8261
26.0317
5.65829
-25.0625
30.7208
-17.4843
8.09393
-14.4863
18.1993
-4.83598
-9.65028
13.5367
12.9541
-14.321
0.314027
-0.784311
11.1498
-11.9341
-2.81806
-12.2482
-22.4938
23.9893
-10.3186
22.3872
10.7904
-9.33296
31.7202
8.98346
-18.3164
-15.853
-18.2648
-6.69811
15.6958
-3.15643
-20.7726
-25.6758
20.5457
0.663451
-32.8442
36.658
-3.81387
-19.0318
-2.54356
19.6732
-26.6531
2.3393
-17.9775
18.6806
22.673
23.3365
-31.1463
-0.60153
-17.9635
4.06254
-22.0261
20.6765
-9.76382
23.65
-26.7378
18.2732
-23.6281
19.6252
-2.40087
20.0551
-12.3178
7.75013
-23.1066
-19.079
24.9251
-12.5675
28.0179
-14.5001
42.518
-25.6655
24.6485
17.8694
-5.04196
-20.9563
-24.3501
19.3081
0.298414
21.1084
24.217
-14.0209
22.5424
10.8796
-22.6128
-10.379
-31.6372
9.02437
-16.3326
-9.2475
18.2719
15.5829
18.2585
6.21176
-16.0352
24.1479
-26.9561
-7.40006
-12.7947
24.01
-4.70185
14.5062
-27.3009
-8.05782
17.8729
-1.06314
-16.8098
2.86298
-19.8258
8.05632
-27.8821
23.4784
-25.5843
5.06155
-19.8513
-12.4908
-12.852
-5.2298
-12.6752
-16.9186
11.6888
-3.93246
13.1654
-19.636
18.5728
-8.36186
20.0506
-13.3772
-2.25414
13.9514
3.36782
23.4185
2.14471
-22.2795
-10.491
20.2211
-9.73016
5.01484
-16.2992
3.92195
11.5835
16.6992
-32.1292
0.565382
-21.7141
-9.03845
16.6317
10.3724
28.2787
4.36778
18.2853
-1.65354
22.6531
10.4383
10.3045
-14.4541
17.0303
4.28721
21.2792
-4.23481
13.575
9.15307
9.33859
3.92474
11.199
6.99427
15.7761
0.889918
-10.2723
8.15534
-17.1262
-3.17969
-16.8501
-0.225893
10.4215
-10.6473
16.2024
-5.07946
6.47227
-0.11154
-10.3993
10.5108
-14.1306
-9.70969
-1.14137
-7.71976
11.6847
9.14866
-10.5433
-3.58727
1.65552
-18.8623
14.8716
-14.5576
-1.60353
29.1173
-13.2514
1.31724
-5.15745
-10.931
-13.5909
13.0418
30.2549
1.46528
15.2101
25.4546
15.1434
1.1225
15.2823
-21.3079
-14.6265
-21.9094
-1.23288
18.4403
7.21105
27.9947
25.0805
20.3786
-6.92222
-33.8783
26.8339
-9.80361
21.9745
-5.16469
-22.7174
22.7626
11.0616
-25.7645
0.180211
-22.5372
-32.3408
-1.00744
19.5803
-22.411
20.1569
13.6081
2.99187
-10.5516
-2.3004
10.8058
-0.501388
22.1517
-1.23883
-16.7373
17.9762
-9.18262
6.00293
1.21012
8.58016
11.7209
6.64149
-10.0959
-20.7432
-9.46294
-7.85411
-20.5782
2.29272
-11.4414
12.6803
-6.67736
6.62092
11.2988
17.7711
-3.69581
-14.508
13.806
-7.18507
10.586
)
;

boundaryField
{
    wall-4
    {
        type            calculated;
        value           uniform 0;
    }
    velocity-inlet-5
    {
        type            calculated;
        value           uniform -18.7548;
    }
    velocity-inlet-6
    {
        type            calculated;
        value           uniform -9.37738;
    }
    pressure-outlet-7
    {
        type            calculated;
        value           nonuniform List<scalar> 8(21.1191 22.9938 22.7679 24.6381 23.98 23.9639 23.8158 24.2691);
    }
    wall-8
    {
        type            calculated;
        value           uniform 0;
    }
    frontAndBackPlanes
    {
        type            empty;
        value           nonuniform 0();
    }
}


// ************************************************************************* //
