/*--------------------------------*- C++ -*----------------------------------*\
| =========                 |                                                 |
| \\      /  F ield         | OpenFOAM: The Open Source CFD Toolbox           |
|  \\    /   O peration     | Version:  4.0                                   |
|   \\  /    A nd           | Web:      www.OpenFOAM.org                      |
|    \\/     M anipulation  |                                                 |
\*---------------------------------------------------------------------------*/
FoamFile
{
    version     2.0;
    format      ascii;
    class       volVectorField;
    location    "8";
    object      U;
}
// * * * * * * * * * * * * * * * * * * * * * * * * * * * * * * * * * * * * * //

dimensions      [0 1 -1 0 0 0 0];

internalField   nonuniform List<vector> 
918
(
(4.98427 -0.000793587 0)
(0.00491934 4.96591 0)
(-0.067933 5.59719 0)
(4.97869 0.0018407 0)
(-0.014744 6.12709 3.45239e-20)
(-0.0067657 4.94767 -3.19934e-17)
(4.18293 5.91917 1.0199e-17)
(2.43142 1.1784 -2.8488e-19)
(4.99992 -6.80607e-05 0)
(0.39597 4.79619 0)
(0.0886766 4.31383 0)
(4.56103 -0.00282967 0)
(0.0105179 4.92892 0)
(-0.0334439 4.79649 0)
(-0.0866215 6.15078 -5.20214e-18)
(0.00470648 6.02568 8.24616e-21)
(3.1434 0.651807 1.94588e-17)
(0.991445 6.15357 7.4079e-18)
(4.96071 0.00708148 0)
(-0.0182359 4.55039 0)
(1.20126 1.28115 -1.52367e-17)
(5.00217 -0.00448159 0)
(5.00001 -0.00900271 0)
(4.97488 -0.00638654 0)
(4.10877 0.0779052 0)
(0.0523308 4.29526 0)
(-0.0238848 4.91235 1.43945e-17)
(-0.104596 5.63049 0)
(-0.126754 6.07358 0)
(-0.091054 5.58573 0)
(-0.0383194 6.57137 0)
(-0.00666341 6.17532 -2.98598e-20)
(-0.0045889 6.02242 0)
(-0.0217923 4.98711 -1.23326e-21)
(-0.0172553 5.00548 2.44606e-17)
(0.00215666 5.00076 0)
(4.88811 -0.0134887 0)
(2.11746 2.96685 4.07947e-18)
(4.51341 5.81975 -1.40494e-17)
(5.13255 5.16061 1.62067e-17)
(3.62485 6.22872 -2.06662e-18)
(3.36948 6.37371 1.20902e-17)
(2.47905 1.43392 3.00623e-19)
(2.6213 1.05478 0)
(6.06654 3.08139 0)
(2.33707 1.36773 1.29296e-18)
(2.23724 1.28573 -1.36412e-18)
(4.92145 -0.00878262 0)
(5.00027 0.000347192 0)
(4.99994 0.000595149 0)
(5.00362 -0.00771575 0)
(5.00092 -0.000497186 0)
(5.00024 0.000274687 0)
(0.259996 5.37908 -5.15746e-18)
(0.116808 5.36704 0)
(0.549 5.02942 0)
(0.0763114 5.21073 0)
(0.282173 4.60528 0)
(0.0624054 5.92374 0)
(0.0190667 4.96719 0)
(0.117834 4.3379 0)
(-0.0012375 4.96 0)
(0.0587482 4.30534 0)
(4.94549 -0.00347027 0)
(4.73334 0.0556879 0)
(4.64752 -0.0022745 0)
(4.66753 0.0646744 0)
(4.45638 0.0284201 0)
(0.0148327 4.99993 1.24612e-17)
(0.0122435 5.00539 0)
(0.00708186 5.00413 0)
(0.0137933 4.9964 1.49093e-22)
(0.00826856 4.95766 -1.82499e-17)
(0.0152418 4.98254 0)
(0.00915289 4.90265 0)
(0.044694 4.9024 3.86794e-23)
(-0.0142846 4.83257 0)
(0.0730372 4.86199 0)
(-0.0506914 4.71425 0)
(0.871582 7.13999 0)
(-0.23443 7.43044 0)
(0.391298 6.29808 4.87697e-18)
(0.0535967 5.55946 0)
(-0.0868719 6.39361 0)
(0.011458 6.24313 -8.12946e-21)
(0.0106133 6.01563 -1.28829e-20)
(3.25243 0.653598 -6.9697e-18)
(3.26785 0.381016 -6.69351e-18)
(3.08123 0.942512 -1.94074e-17)
(3.03207 0.726947 -1.33161e-17)
(0.90438 3.94207 0)
(1.38652 6.67038 -8.43471e-18)
(1.69552 6.61054 1.35633e-17)
(4.98548 0.00979226 0)
(4.93813 0.00636154 0)
(5.00029 0.000826084 0)
(5.00243 0.00953407 0)
(5.00298 0.009959 -3.87893e-17)
(4.99152 0.0094653 2.737e-17)
(-0.0757285 5.12634 0)
(0.000950213 4.46114 0)
(-0.134477 5.63407 0)
(-0.093638 5.21642 0)
(-0.0451903 4.66679 0)
(1.5335 1.46252 4.57048e-18)
(1.63529 1.36092 0)
(4.99444 -0.00762326 0)
(4.95415 -0.00688815 0)
(4.53987 0.0640111 0)
(4.34487 0.0630843 0)
(4.31313 0.0602076 0)
(5.44623 -0.0787876 0)
(4.10356 0.0965335 0)
(3.7635 0.156688 2.5582e-17)
(0.00848453 4.98523 1.44167e-17)
(0.124517 4.8078 0)
(0.198757 4.74977 0)
(-0.0653354 4.57138 0)
(-0.00550043 4.98465 1.45004e-17)
(-0.027136 4.90959 0)
(-0.0128907 4.98747 -4.31197e-17)
(-0.018563 4.92515 1.44274e-17)
(-0.0959291 6.40561 0)
(-0.073986 6.38968 0)
(0.00422169 6.211 6.77177e-22)
(-0.00181513 6.18233 0)
(-0.00132273 6.0281 0)
(4.95626 0.00244176 0)
(4.88667 -0.0160456 0)
(4.83942 0.00359755 0)
(4.96124 -0.00046704 0)
(4.89336 -0.0115217 0)
(2.26122 4.09281 -5.08934e-18)
(2.21035 3.43294 0)
(2.06724 3.88276 6.26606e-19)
(2.026 2.66929 0)
(4.79185 5.24047 -3.98473e-18)
(5.3571 4.67512 7.75076e-18)
(2.094 6.74036 0)
(2.84664 6.58423 0)
(2.54729 6.64099 0)
(1.75033 2.73896 -3.98308e-18)
(2.66871 1.16462 0)
(2.73675 1.04982 3.61667e-18)
(5.47937 4.37875 0)
(5.64295 3.73365 0)
(5.94016 3.5292 -7.79821e-18)
(6.19601 2.84124 0)
(6.42435 2.13866 1.30722e-18)
(4.9644 -0.0039117 0)
(4.96638 -0.00727609 0)
(4.90589 -0.0109106 0)
(4.98552 -0.00779746 0)
(4.9769 -0.00762724 0)
(4.93682 -0.00694789 0)
(5.00013 0.00297924 0)
(5.00067 0.00170798 0)
(4.99995 0.0010446 0)
(0.141714 5.70215 2.85025e-18)
(0.358809 5.20964 0)
(0.0763401 5.94644 4.51949e-18)
(0.173047 5.54873 -3.75186e-18)
(0.727385 6.06031 -6.09304e-18)
(0.182866 5.56917 0)
(0.518505 5.57193 0)
(0.0647097 5.09735 0)
(0.227541 4.46711 0)
(0.0417123 6.20495 -6.55322e-21)
(0.0818916 5.86622 0)
(0.0360646 6.23304 -2.47574e-19)
(0.0522614 5.97366 4.19623e-19)
(0.0491996 5.01967 0)
(0.0362529 4.98412 0)
(0.166116 4.38582 0)
(-0.0182387 4.97863 0)
(0.0363898 4.33292 0)
(5.04176 0.0423213 0)
(4.99649 0.015599 0)
(4.99584 0.0265714 0)
(4.91136 -0.00723301 0)
(4.76064 -0.00859945 0)
(4.84621 0.039063 0)
(4.79782 0.0482935 0)
(4.70828 -0.00821848 0)
(0.00690963 5.06178 -1.20605e-19)
(0.0100762 5.06271 0)
(0.0170002 4.96939 0)
(0.00478948 4.87662 0)
(2.24399 8.33305 0)
(2.98083 7.25548 2.12636e-18)
(0.216469 5.69619 0)
(0.0388874 5.21069 0)
(-0.0884979 6.33679 0)
(-0.0976418 6.36222 0)
(-0.090199 6.34772 0)
(-0.0440716 6.55686 7.3217e-22)
(-0.0811784 6.44542 0)
(-0.0696816 6.4707 0)
(0.0290835 5.99202 -4.38501e-22)
(0.0232505 6.27674 5.24134e-20)
(0.0182344 6.26443 1.28366e-20)
(0.0200495 6.00585 0)
(3.41527 0.676181 1.04259e-17)
(3.43099 0.327999 -1.01781e-17)
(0.613284 4.6624 0)
(1.12695 3.62145 -2.53839e-18)
(0.476179 4.84412 -7.57925e-18)
(0.722645 4.24361 7.60157e-18)
(4.89075 0.00508071 0)
(4.96256 0.014083 0)
(4.97149 0.012273 0)
(4.91641 0.00582905 0)
(-0.0394152 5.01832 0)
(-0.0585992 5.06844 0)
(0.0182565 4.38141 0)
(2.08422 1.54403 1.19245e-17)
(1.8814 1.46607 -1.58792e-17)
(1.99718 1.23106 0)
(5.92271 0.455907 2.75765e-19)
(5.9898 0.117602 0)
(5.525 0.188898 0)
(5.1954 0.0302884 0)
(3.55451 0.358861 0)
(3.74819 0.335973 -4.07258e-17)
(3.53367 0.161816 1.7299e-17)
(0.0457901 5.03712 1.35521e-17)
(-0.0176222 4.9418 1.81992e-19)
(0.00811597 5.05075 -2.87854e-19)
(0.0143125 5.04748 1.02344e-17)
(-0.0152074 4.99722 4.60334e-19)
(-0.0137365 4.9488 -1.83908e-21)
(-0.0173846 5.01351 -8.11434e-18)
(0.0114606 5.02882 5.49867e-18)
(0.00596776 5.03414 -8.96837e-18)
(4.97724 0.0200948 0)
(4.96546 0.011418 0)
(4.89289 -0.0116279 0)
(4.94769 0.0167355 0)
(4.92681 0.0200079 0)
(4.86453 0.0044799 0)
(4.8815 0.0308691 0)
(4.9007 0.0237584 0)
(4.80425 -0.00477141 0)
(2.44404 4.38537 -4.45316e-18)
(2.2368 3.99211 0)
(1.8913 2.58883 1.18332e-18)
(1.77665 3.75681 9.11628e-18)
(1.91059 3.79043 -5.41541e-18)
(1.9472 2.57357 1.04076e-17)
(1.36259 3.94086 1.95458e-17)
(1.6279 2.93862 3.88405e-18)
(3.0076 0.967974 1.48613e-17)
(2.79517 1.24621 3.68489e-18)
(2.88649 0.9712 7.36174e-18)
(6.27381 2.17094 3.87463e-18)
(6.44824 1.57254 3.83661e-18)
(0.0621607 6.0427 1.73298e-18)
(0.145928 5.67806 0)
(5.2605 0.105546 0)
(5.12311 0.0595884 0)
(5.07007 0.0110488 0)
(0.0070736 5.07827 0)
(0.0301449 4.9323 2.04547e-17)
(0.0215118 4.95397 0)
(-0.00246129 4.85346 -2.02449e-17)
(-0.00167604 5.09105 5.3311e-18)
(0.0152859 5.07871 0)
(2.46568 4.67613 3.10289e-19)
(3.11109 5.83001 -1.03176e-18)
(2.33969 4.83649 -1.91729e-18)
(0.0874952 5.14141 -1.33005e-17)
(0.128892 5.33857 0)
(0.0426067 5.07152 0)
(0.0320199 6.25348 -6.30871e-20)
(0.0293743 6.29722 -1.17434e-19)
(0.0407432 5.97662 -4.23059e-20)
(0.797593 4.38386 8.02463e-18)
(1.28365 3.46168 -5.66111e-18)
(0.206204 5.46331 5.1693e-18)
(0.313807 5.18164 -6.36982e-18)
(0.523179 4.76301 7.83084e-19)
(0.0296311 5.12737 -3.40992e-17)
(0.0347227 5.12106 3.66052e-17)
(0.00640625 4.9853 1.45894e-17)
(0.0201296 4.99845 -1.46394e-17)
(-0.0206165 4.9162 -1.48584e-17)
(0.017184 5.09665 -4.07367e-17)
(0.0102023 5.1012 3.7804e-17)
(1.51276 3.774 0)
(1.64825 3.7574 -1.95597e-17)
(1.80558 2.70062 8.7202e-18)
(1.22151 3.97819 1.07905e-17)
(1.516 3.04201 -1.68574e-17)
(6.32707 0.872002 7.39924e-20)
(6.44435 1.31537 0)
(6.44482 0.643421 1.34501e-18)
(0.0477354 6.16403 -1.01705e-20)
(0.0517624 6.11442 0)
(0.113126 5.78714 0)
(0.930307 4.25962 -2.96429e-18)
(1.06405 4.16564 -6.79142e-18)
(1.40696 3.22601 1.25422e-17)
(5.00739 -0.0102887 0)
(5.00861 -0.00679458 6.88006e-18)
(-0.0977287 6.35898 0)
(-0.135181 6.41306 0)
(5.00225 0.00402726 8.77391e-21)
(5.00316 0.00917333 1.52636e-17)
(-0.043735 6.56791 -8.37593e-22)
(-0.0314896 6.60009 0)
(0.257504 5.41789 1.21762e-17)
(1.11382 6.40119 0)
(5.22488 3.42634 -3.65843e-19)
(5.00932 0.0147695 -9.77624e-21)
(5.02622 -0.00625576 0)
(5.00153 0.0014513 2.82743e-21)
(0.314088 6.55782 0)
(0.277563 6.59202 0)
(0.0136148 6.37433 0)
(0.0354013 6.80514 3.27764e-19)
(-0.00540093 6.76142 6.23875e-20)
(4.89742 0.0928804 9.30988e-20)
(5.12847 0.0498467 0)
(5.25648 0.123984 0)
(-0.0929112 6.37176 0)
(-0.0266022 6.66427 0)
(-0.0792146 6.34843 0)
(1.0391 6.99419 -4.2596e-18)
(5.01307 -0.00766354 0)
(5.01153 -0.0147048 0)
(5.00265 0.00249441 9.14525e-18)
(5.00623 -0.00410922 -1.03242e-17)
(5.00095 -0.000358203 0)
(-0.0984798 6.34609 0)
(-0.0892128 6.33857 0)
(-0.0919732 6.34356 0)
(-0.0815256 6.34557 0)
(-0.0967403 6.33066 0)
(-0.10058 6.35039 0)
(5.05449 0.00628226 0)
(4.99693 0.0275768 1.44264e-20)
(3.49565 6.11534 7.36645e-18)
(5.00202 0.00206231 -8.63028e-18)
(5.0031 0.00497962 1.05135e-17)
(5.00146 0.00315571 0)
(5.00921 0.0127624 9.28145e-18)
(5.00481 0.00887805 -1.15799e-17)
(5.00593 0.0129723 0)
(-0.0271473 6.66181 0)
(-0.032667 6.62114 -2.67266e-20)
(-0.0267059 6.64365 1.69581e-20)
(5.79328 1.30032 6.98507e-18)
(5.52369 0.400041 0)
(0.391134 4.93926 -2.20056e-17)
(0.262991 4.65758 -1.46024e-18)
(0.664841 5.37989 2.90239e-17)
(0.519481 5.53375 -8.41994e-18)
(0.568543 5.64096 0)
(0.126703 5.20291 5.55156e-18)
(0.360312 5.24404 2.17225e-17)
(0.345578 5.38164 -1.03236e-17)
(0.142917 5.07378 0)
(3.31043 1.77259 0)
(3.02703 1.95433 0)
(5.27193 3.52514 1.57052e-19)
(4.99546 4.21754 1.02761e-18)
(5.5429 2.89142 0)
(5.52574 2.77375 0)
(5.01278 0.015889 -1.73994e-17)
(5.01185 0.0179088 2.01166e-17)
(5.0349 -0.00421813 0)
(5.03138 -0.0101846 0)
(5.00658 0.00770548 0)
(5.01001 0.00803678 0)
(5.00396 0.00387705 0)
(5.00808 0.0104523 0)
(5.00569 0.00739054 0)
(5.00412 0.0076536 0)
(0.28952 6.52634 0)
(0.196974 6.47285 0)
(0.41257 6.71236 0)
(0.372152 6.74481 0)
(0.335698 6.553 0)
(0.354888 6.61774 -2.78214e-18)
(0.243116 6.70795 0)
(0.170994 6.74088 1.3543e-18)
(0.0977335 6.80879 -1.07361e-18)
(0.00736594 6.36788 0)
(-0.010079 6.35571 0)
(0.0322024 6.38065 0)
(0.0443426 6.31701 0)
(0.0428502 6.41721 1.19018e-20)
(-0.00218337 6.78039 5.0231e-20)
(0.0312786 6.84197 2.08716e-19)
(0.00805052 6.85093 0)
(-0.0115557 6.776 -1.32041e-19)
(-0.0130361 6.76551 -3.30091e-20)
(0.0489561 6.39494 4.25238e-21)
(0.00592533 6.60873 -7.99779e-20)
(0.0162716 6.66889 -2.26932e-19)
(4.93592 0.112255 1.7948e-17)
(4.94002 0.0590871 -2.22571e-17)
(4.89559 0.139809 -1.90875e-17)
(4.83448 0.105038 2.43049e-17)
(5.13192 0.0568887 0)
(5.09661 0.00775781 0)
(5.23746 0.163213 0)
(5.16643 0.0797082 0)
(5.16397 0.0451117 0)
(5.4582 0.348385 0)
(5.30698 0.209975 0)
(5.30472 0.174996 0)
(-0.0740226 6.51903 4.49652e-21)
(-0.0943126 6.41318 0)
(-0.0774387 6.45053 0)
(-0.0263624 6.68687 -8.61625e-21)
(-0.0159858 6.71323 -6.10995e-23)
(-0.0872381 6.36079 -8.22324e-20)
(-0.0935632 6.35287 8.7947e-20)
(-0.0852412 6.34769 0)
(-0.0934689 6.34782 0)
(-0.0991586 6.34366 0)
(-0.0693965 6.34555 0)
(-0.0603108 6.34541 0)
(1.60135 7.06323 6.46726e-18)
(1.56876 7.09167 2.93895e-18)
(1.23577 6.01898 -2.02209e-18)
(0.727236 6.29066 5.15529e-18)
(1.2316 5.93467 1.01418e-18)
(5.02668 -0.00469554 0)
(5.01888 -0.00734743 0)
(5.0186 -0.0141041 0)
(5.00739 0.00308853 0)
(5.00519 0.000701072 0)
(5.00775 -0.00179211 0)
(5.01209 -0.000693805 0)
(5.01588 -0.000350762 0)
(5.00619 0.033584 1.72137e-17)
(5.00592 0.020074 -2.08885e-17)
(5.00074 0.0364571 -1.84237e-17)
(4.98865 0.0382886 2.03268e-17)
(3.46289 6.20269 0)
(2.92271 6.61137 6.38497e-18)
(4.10641 5.728 2.79253e-18)
(4.09923 5.73441 -3.67435e-18)
(3.08405 5.43941 1.62132e-17)
(4.08864 0.683343 1.07621e-17)
(5.55242 0.458547 0)
(5.74617 0.86179 -5.29042e-18)
(5.6059 0.767862 -2.10672e-19)
(4.80549 0.648411 0)
(0.80721 5.11651 1.53767e-17)
(0.70869 4.68065 -2.67629e-17)
(0.441861 3.41608 1.68672e-17)
(0.879886 1.37255 -7.73599e-18)
(0.941549 6.28996 5.98282e-18)
(0.624027 5.93666 0)
(0.719463 6.06713 -7.78695e-18)
(1.01481 5.31712 -4.17268e-17)
(1.20545 5.71237 0)
(0.0497563 5.11625 9.58168e-19)
(0.0746158 5.12796 -9.7991e-18)
(0.0582722 5.11266 1.55042e-17)
(0.174754 5.15141 0)
(0.178361 5.21218 0)
(3.35165 5.58271 0)
(2.75357 4.02451 -8.7559e-18)
(4.60878 5.06477 -1.43763e-18)
(4.66285 5.13445 0)
(4.15093 4.51317 -1.07265e-18)
(5.04986 4.37999 5.5055e-19)
(1.9838 2.02673 -1.97863e-17)
(3.51562 1.68606 -6.04581e-19)
(3.36847 1.52174 7.9158e-18)
(3.02268 2.1442 6.16563e-19)
(2.67167 1.95006 -2.5073e-17)
(3.35692 1.81549 0)
(3.41721 2.1255 1.13168e-17)
(3.39383 2.10134 0)
(3.21995 2.01375 0)
(3.10783 1.74024 0)
(3.80056 3.0221 6.7706e-18)
(5.82382 1.39037 -5.70027e-18)
(5.76152 2.08785 0)
(5.68265 1.97276 0)
(3.7283 1.11562 1.20079e-17)
(3.9758 2.60955 -6.97881e-18)
(3.55123 2.43347 1.19829e-17)
(4.46285 2.09128 -1.32326e-17)
(5.00977 0.0234999 1.04563e-17)
(5.01159 0.0183314 -1.00491e-17)
(5.01043 0.019747 0)
(5.0578 0.0070806 0)
(5.04428 -0.00115557 -1.08368e-17)
(5.04267 -0.00850752 1.06251e-17)
(5.0188 0.0309264 0)
(5.01309 0.034529 0)
(5.01112 0.0107143 0)
(5.01134 0.0139878 0)
(5.01506 0.0131605 0)
(5.01461 0.00947805 0)
(0.162463 6.49676 0)
(0.116398 6.39339 0)
(0.565142 6.62402 1.28112e-18)
(0.982136 6.93411 2.08836e-18)
(0.51463 6.90339 4.45575e-18)
(0.606619 6.92822 -7.34944e-18)
(0.634096 6.70852 0)
(0.572461 6.22998 -2.24755e-19)
(0.513416 6.25938 0)
(1.1189 5.97102 -1.43558e-18)
(0.863491 6.06913 5.10186e-18)
(0.765906 6.26502 1.9378e-19)
(0.986442 6.58106 9.48475e-19)
(0.844614 6.58773 -7.82197e-19)
(1.2854 6.25683 -2.94422e-19)
(0.968926 6.11704 0)
(1.06459 6.08418 4.95754e-19)
(0.101698 6.54252 -1.9622e-19)
(0.112382 6.76774 0)
(0.204073 6.53513 1.27129e-18)
(0.177969 6.56342 0)
(0.154483 6.75555 -1.48708e-18)
(0.107738 6.80892 0)
(0.0529358 6.3779 2.31614e-19)
(0.0836539 6.32579 0)
(0.0697816 6.44163 0)
(0.037034 6.43331 -2.6621e-19)
(0.0412576 6.81992 -1.98773e-20)
(0.0851068 6.84258 1.24903e-18)
(0.0488543 6.87497 7.44777e-21)
(0.00761223 6.39339 -6.04486e-21)
(0.0131059 6.36342 -1.39281e-20)
(-0.013368 6.35343 0)
(-0.027964 6.3489 0)
(0.0999907 6.25732 1.13928e-19)
(0.135072 6.422 -1.99684e-19)
(0.104317 6.31729 1.14058e-19)
(0.158462 6.29701 0)
(-0.0721959 6.52211 1.24295e-19)
(-0.0634401 6.65762 -4.3924e-20)
(-0.045081 6.62542 5.44762e-21)
(0.00261664 6.39139 8.33694e-21)
(-0.031989 6.67936 4.76591e-22)
(-0.0149463 6.66903 8.08642e-20)
(4.9873 0.0461478 -1.08241e-17)
(4.97028 0.0681961 1.20547e-17)
(4.96905 0.0388434 0)
(4.88495 0.243172 1.59704e-17)
(4.83356 0.184392 -2.01498e-17)
(4.73022 0.175122 2.28278e-17)
(4.85434 0.441615 -2.38845e-18)
(5.0747 0.0103999 0)
(5.09723 0.0248197 1.03585e-17)
(5.0667 -0.00314751 -1.0718e-17)
(5.15291 0.166212 -6.5116e-19)
(5.13026 0.115814 5.54166e-18)
(5.11432 0.251085 0)
(5.06424 0.205616 -2.03215e-18)
(4.98986 0.148729 0)
(4.97535 0.12248 0)
(5.02015 0.0378022 0)
(5.00735 0.0380413 0)
(5.03194 0.116404 4.21084e-18)
(5.03109 0.09462 -9.32583e-18)
(5.07441 0.146699 -4.33701e-18)
(5.05683 0.142312 -4.83818e-18)
(5.14352 0.266741 9.61195e-18)
(5.26562 0.22593 0)
(5.29061 0.411699 0)
(-0.0773215 6.51199 9.10718e-20)
(-0.0875763 6.43405 5.23146e-21)
(-0.0884755 6.43615 0)
(-0.0604356 6.57429 -7.54337e-20)
(-0.0639783 6.53288 -9.59236e-21)
(-0.063827 6.56739 9.51385e-21)
(-0.0120006 6.75958 2.44809e-20)
(-0.0384718 6.7002 -2.37024e-21)
(-0.0339009 6.68088 1.41306e-20)
(-0.0143363 6.72964 -1.10935e-20)
(-0.014721 6.74455 1.4429e-20)
(-0.0810443 6.35555 -1.0652e-20)
(-0.0840801 6.37035 -1.15969e-19)
(1.73302 6.54227 -3.24532e-18)
(1.40408 6.29971 -7.00697e-20)
(2.91554 6.73703 -6.10651e-18)
(2.25155 7.00926 -3.26096e-18)
(2.28171 6.9967 0)
(1.34747 5.90001 1.62602e-18)
(1.42312 5.97217 2.53584e-18)
(0.880539 6.15431 5.18349e-19)
(0.85597 6.07086 -5.41448e-18)
(1.1043 5.9863 4.42369e-18)
(1.1862 6.07699 0)
(0.945163 6.2184 -3.78772e-18)
(0.485978 6.42372 7.29964e-18)
(0.699636 6.32413 -4.63718e-19)
(0.491724 6.52342 -1.038e-17)
(2.33053 5.53042 1.17333e-17)
(2.00051 5.72379 0)
(5.01236 0.00461819 3.97097e-19)
(5.01861 -0.000581702 -2.83073e-19)
(5.01952 0.00297587 -5.23637e-18)
(5.0182 0.00520524 5.3202e-18)
(5.01363 0.00769413 0)
(3.11584 5.87303 0)
(3.21555 5.34517 0)
(3.71988 5.0732 0)
(3.22037 5.23894 0)
(3.05517 5.47391 -2.48912e-19)
(3.02226 5.45595 0)
(2.43142 5.22637 6.54947e-20)
(1.97802 5.56773 0)
(2.17504 5.39375 -6.76875e-18)
(2.2693 5.45935 4.3745e-18)
(4.05265 0.721017 0)
(3.93078 0.864749 3.16834e-18)
(4.42805 0.67626 1.63719e-17)
(4.19652 0.554807 -6.3122e-18)
(4.15874 0.467027 -1.90771e-17)
(5.15279 1.07915 -1.21132e-17)
(4.67241 1.29288 -3.44575e-19)
(4.3939 1.40868 1.52033e-17)
(4.75597 1.00457 1.24365e-17)
(4.49209 0.835155 -2.15757e-17)
(4.33608 0.895556 2.75693e-18)
(4.5011 1.24548 -5.90816e-18)
(4.35566 0.983781 0)
(4.70819 0.803486 1.07353e-17)
(4.95723 0.842012 0)
(4.91754 0.935177 0)
(5.32138 0.512914 4.12219e-18)
(5.04342 0.773168 -2.38941e-19)
(5.1093 1.09114 -2.40345e-18)
(5.29191 0.913305 0)
(4.95023 0.154504 9.29061e-18)
(4.9987 0.237677 1.19509e-17)
(4.98519 0.157147 -9.81489e-18)
(5.00544 0.258176 -7.93411e-18)
(4.89797 0.264185 -1.13959e-17)
(4.70028 0.653252 0)
(4.77447 0.399148 0)
(4.70221 0.241591 -8.1769e-18)
(4.53545 0.342446 3.06184e-18)
(4.96241 0.445748 1.13322e-17)
(5.09136 0.540324 -1.28395e-17)
(5.1014 0.700949 1.21396e-17)
(4.90444 0.608622 0)
(5.14932 0.472145 0)
(5.04343 0.410846 -5.24587e-18)
(4.99171 0.407319 -9.23726e-18)
(2.80427 5.01617 2.45646e-18)
(2.56013 5.0692 -2.88811e-18)
(2.74893 5.29046 -4.25615e-18)
(2.91866 5.78672 8.21999e-19)
(3.098 5.60881 -1.01743e-17)
(3.32057 5.65245 4.72741e-18)
(3.3943 5.46552 -2.58023e-19)
(2.9484 5.74265 -4.01196e-18)
(2.89795 5.73357 6.85804e-18)
(2.97713 6.20451 1.03092e-18)
(3.37394 5.97614 -1.29461e-18)
(3.503 5.96158 0)
(2.90332 4.09583 -7.07602e-19)
(1.54253 3.04364 8.42251e-18)
(1.91265 2.55086 1.28251e-17)
(1.45838 2.31739 1.51765e-17)
(2.61591 2.15719 1.44205e-17)
(2.74167 2.50101 -2.33874e-17)
(2.51923 2.57521 1.8877e-17)
(2.30746 2.33569 -7.45012e-18)
(2.32014 1.85825 1.69941e-17)
(3.82449 1.28611 -6.87787e-18)
(3.67394 1.47304 0)
(3.6037 1.35349 3.00822e-19)
(3.5156 2.5397 7.11028e-18)
(3.24224 2.36116 -2.47771e-17)
(2.92045 2.47592 6.67084e-19)
(3.16193 2.31383 0)
(3.38795 3.57145 6.00242e-18)
(3.96751 3.73722 6.26102e-18)
(3.65125 4.0249 -7.55629e-18)
(4.19245 3.89762 -2.26017e-18)
(4.46476 4.02459 -3.69758e-19)
(4.46008 4.0986 3.76706e-19)
(4.07135 3.16974 -1.10403e-17)
(4.47137 3.43189 2.06074e-18)
(4.78576 3.45791 0)
(4.78952 3.31289 -2.63607e-18)
(4.83735 1.58649 3.60438e-18)
(5.51579 1.4558 3.66576e-18)
(5.08665 1.25264 5.56609e-18)
(4.72224 1.71101 -7.178e-18)
(4.99734 2.04941 0)
(5.31801 1.91932 0)
(4.27918 1.77586 8.56747e-20)
(4.03791 1.42853 0)
(4.04563 1.34846 7.42083e-18)
(4.24561 1.43838 9.25595e-20)
(4.46224 2.12828 3.79038e-17)
(4.2568 2.41433 9.01941e-18)
(4.25967 2.24482 -1.0125e-17)
(3.92223 2.1335 1.06553e-17)
(3.82813 2.09899 6.59274e-18)
(3.68801 1.99067 -6.79011e-18)
(5.03639 0.0128331 9.80324e-18)
(5.01946 0.0118744 0)
(5.01932 0.0119368 5.92662e-18)
(5.03007 0.0139676 -1.42162e-17)
(5.02314 0.0178638 6.60862e-18)
(5.01663 0.0261971 -1.30774e-17)
(5.01364 0.0240501 0)
(5.01273 0.0225152 -2.87649e-18)
(5.01387 0.0162003 7.26967e-18)
(5.01221 0.0190996 -3.71409e-18)
(5.01098 0.0194872 2.80038e-18)
(0.0663265 6.38725 0)
(0.0575252 6.45591 0)
(0.107242 6.43251 0)
(0.0826826 6.32515 0)
(0.246262 6.44607 -1.14195e-18)
(0.28616 6.50445 2.58445e-19)
(0.352567 6.33457 1.56816e-19)
(0.353402 6.5082 -1.00049e-18)
(0.154426 6.42845 5.03306e-19)
(0.161256 6.4352 -4.06091e-19)
(0.231067 6.46778 -3.38218e-19)
(0.145008 6.53895 1.06029e-18)
(0.101376 6.49614 1.58973e-19)
(0.0939187 6.48451 8.98584e-20)
(0.256706 6.51858 -1.38549e-18)
(0.303915 6.52864 0)
(0.402326 6.28453 1.00748e-18)
(0.436648 6.28343 3.86166e-19)
(0.790545 6.1655 -7.26539e-19)
(0.553113 6.22856 0)
(0.577374 6.14133 -5.66085e-18)
(0.812091 6.12608 3.82703e-18)
(0.688285 6.1614 -2.02956e-18)
(0.476517 6.30048 1.23251e-18)
(0.329174 6.2775 0)
(0.0835537 6.33291 -3.1712e-19)
(0.0503259 6.61162 -6.94913e-19)
(0.0496823 6.43803 0)
(0.0720184 6.67053 -5.45573e-20)
(0.0947148 6.55568 2.38322e-19)
(0.030863 6.38189 -5.54276e-20)
(0.00316595 6.36266 7.57947e-19)
(-0.00267208 6.35903 -3.21914e-19)
(0.0144184 6.36352 -1.49104e-19)
(0.0507759 6.37604 0)
(-0.014727 6.35529 0)
(-0.0470845 6.34574 -2.92974e-19)
(-0.0449038 6.35729 9.62214e-20)
(-0.0222191 6.36168 0)
(-0.0314752 6.34723 -2.46166e-19)
(-0.0452756 6.34555 4.77842e-19)
(5.06216 0.0570733 0)
(5.08176 0.0494688 -9.84302e-19)
(5.03931 0.0881555 -7.3571e-18)
(5.07107 0.0886408 0)
(5.08253 0.0896623 0)
(5.03342 0.0518413 -8.67308e-20)
(5.026 0.0516325 1.18341e-17)
(5.02286 0.055004 1.36092e-17)
(5.00733 0.0558353 0)
(4.98991 0.0529503 0)
(5.02596 0.0883487 7.15405e-18)
(4.99136 0.0808921 0)
(4.98514 0.0765034 0)
(-0.055238 6.45026 0)
(-0.0731038 6.37376 1.90211e-21)
(-0.0738604 6.38679 -2.4506e-20)
(-0.0498983 6.34728 0)
(-0.0574826 6.36196 -8.06785e-20)
(-0.0704306 6.35479 5.21538e-20)
(-0.0729696 6.34677 0)
(1.84957 5.75722 0)
(1.40494 6.01457 -4.43319e-19)
(1.33484 5.83007 0)
(1.92862 6.07108 -7.53069e-19)
(2.20256 6.58059 0)
(1.97792 6.43627 9.02306e-19)
(2.24919 5.53864 -2.06059e-19)
(2.38197 5.5317 -1.11766e-17)
(2.52772 5.52232 1.35059e-17)
(2.00822 5.68711 2.74743e-18)
(1.96128 5.54382 0)
(2.14914 5.41299 0)
(2.28754 5.58083 0)
(2.15961 5.70628 -1.00043e-17)
(1.6572 5.74104 -5.0915e-18)
(1.88642 5.51863 -1.20865e-18)
(1.97213 5.55602 8.05117e-19)
(1.5849 5.82653 0)
(1.86983 5.80505 0)
(1.68328 5.87973 -2.99417e-18)
(1.75675 5.70364 0)
(3.14435 4.94216 0)
(2.82973 4.54163 -7.00272e-18)
(2.82966 4.58525 -3.94283e-19)
(2.83823 4.86794 0)
(2.87966 4.78631 1.05277e-17)
(3.78574 4.16953 -1.72147e-18)
(3.8183 4.76116 0)
(3.73376 4.65904 1.92436e-18)
(3.34598 4.70637 0)
(3.31694 4.44458 0)
(2.78387 5.38362 -5.47705e-18)
(2.68271 5.33906 -3.1634e-18)
(2.60038 5.15758 4.95507e-18)
(2.6093 5.21178 -1.72147e-18)
(2.7587 5.48516 0)
(2.66374 5.44484 2.38014e-18)
(2.93865 5.47522 -3.3332e-18)
(2.87297 5.46917 -1.85702e-19)
(2.46391 5.3366 0)
(2.55496 5.26658 -2.15337e-18)
(2.73272 5.34828 0)
(4.09854 1.09402 0)
(3.97993 0.925709 0)
(3.86176 1.01277 0)
(4.06283 1.11141 -1.14815e-17)
(3.90772 1.10735 6.92485e-18)
(4.53542 0.331739 -5.26417e-18)
(4.55933 0.534671 0)
(4.43324 0.568222 3.17584e-18)
(4.30796 0.363811 1.07251e-17)
(4.34837 0.361293 -6.77098e-18)
(2.93513 6.49958 1.26256e-18)
(2.97433 6.24859 0)
(2.9251 6.45218 3.80919e-18)
(1.67869 6.67882 -4.01086e-18)
(2.31164 5.38798 -5.57354e-18)
(2.67207 4.1841 8.66358e-18)
(2.79626 4.39438 0)
(2.40769 3.41498 -2.67649e-18)
(2.52111 3.48604 1.38903e-17)
(2.13942 2.98668 -4.20987e-18)
(2.63312 2.82272 4.31978e-18)
(3.19274 2.69784 9.3237e-18)
(3.34576 2.7497 0)
(3.04188 3.21684 0)
(2.77862 2.91952 0)
(4.7815 2.8539 7.56993e-19)
(4.33364 2.63478 -9.03907e-18)
(4.50783 2.82096 5.78381e-18)
(4.65312 2.43227 -6.8678e-18)
(5.00429 2.27781 0)
(5.16454 2.72773 -1.44044e-18)
(4.05157 1.87463 -1.49887e-17)
(4.01595 1.79201 -1.97615e-17)
(3.86577 1.86211 1.20999e-17)
(3.77125 1.68242 -1.29039e-17)
(4.00464 1.4897 -9.80632e-18)
(3.83735 1.51675 1.19772e-17)
(5.02844 0.024273 -7.37077e-18)
(5.02443 0.0244995 1.36181e-17)
(5.04004 0.0184393 9.61717e-18)
(5.04665 0.0195358 -1.10723e-17)
(5.04575 0.0488415 0)
(5.02895 0.0472827 -1.82645e-17)
(0.219026 6.28424 1.095e-19)
(0.179452 6.30693 0)
(0.320491 6.27318 6.94975e-19)
(0.354735 6.30251 -5.50661e-19)
(0.256083 6.32491 -2.96959e-19)
(0.239042 6.30238 0)
(-0.0173828 6.36933 0)
(-0.0186216 6.3606 5.15935e-20)
(-0.0369527 6.3508 -4.768e-20)
(-0.0499473 6.36161 6.51352e-21)
(-0.0451294 6.42124 6.45148e-20)
(-0.0361072 6.42654 -3.82432e-22)
(2.27397 5.36383 -6.71552e-18)
(2.19029 5.47437 7.17113e-18)
(1.96841 5.91332 -6.17457e-19)
(2.08112 5.60577 2.52349e-19)
(3.03077 5.91103 0)
(2.5296 6.33288 3.27068e-18)
(2.72408 6.33594 -3.14705e-18)
(2.19971 6.05468 6.29786e-19)
(2.53255 5.61251 0)
(2.64438 5.6381 0)
(1.61486 5.67899 7.60577e-18)
(1.51551 5.72532 1.17646e-17)
(1.67557 5.76402 -8.14478e-18)
(1.38777 5.76097 -1.59182e-18)
(1.39617 5.88123 2.3985e-18)
(1.0873 5.93127 -6.13194e-18)
(2.61113 5.4731 -7.64694e-18)
(2.7565 5.4773 0)
(2.6951 5.48071 -7.1857e-18)
(2.50409 5.43444 0)
(2.48198 5.39838 0)
(2.24641 4.95837 -5.87845e-18)
(2.56662 5.45198 -3.97808e-18)
(2.37548 5.51917 3.89924e-18)
(1.66235 3.4699 0)
(2.23527 3.67658 -4.91801e-18)
(2.52055 3.99817 -5.46296e-18)
(1.95595 4.60608 0)
(1.68082 4.98596 4.25178e-18)
(1.65303 4.81377 0)
(3.40486 3.41264 -1.3124e-17)
(3.75428 3.31199 1.85818e-17)
(3.76477 3.1585 -1.94505e-17)
(3.30476 3.22733 -1.7599e-18)
(3.54204 3.01769 -7.57353e-18)
(2.5649 5.26881 3.14965e-18)
(2.55257 5.12579 -6.15917e-18)
(2.28895 5.02946 9.17281e-18)
(2.54831 4.75796 -6.27606e-18)
(2.66072 4.99989 -5.60111e-18)
(2.65527 4.96344 -5.54062e-19)
(2.63579 4.95629 5.09936e-18)
(2.58076 4.86452 5.03156e-19)
(2.63027 4.99115 2.80049e-18)
)
;

boundaryField
{
    wall-4
    {
        type            noSlip;
    }
    velocity-inlet-5
    {
        type            fixedValue;
        value           uniform (5 0 0);
    }
    velocity-inlet-6
    {
        type            fixedValue;
        value           uniform (0 5 0);
    }
    pressure-outlet-7
    {
        type            zeroGradient;
    }
    wall-8
    {
        type            noSlip;
    }
    frontAndBackPlanes
    {
        type            empty;
    }
}


// ************************************************************************* //
