/*--------------------------------*- C++ -*----------------------------------*\
| =========                 |                                                 |
| \\      /  F ield         | OpenFOAM: The Open Source CFD Toolbox           |
|  \\    /   O peration     | Version:  4.0                                   |
|   \\  /    A nd           | Web:      www.OpenFOAM.org                      |
|    \\/     M anipulation  |                                                 |
\*---------------------------------------------------------------------------*/
FoamFile
{
    version     2.0;
    format      ascii;
    class       volScalarField;
    location    "10";
    object      p;
}
// * * * * * * * * * * * * * * * * * * * * * * * * * * * * * * * * * * * * * //

dimensions      [0 2 -2 0 0 0 0];

internalField   nonuniform List<scalar> 
918
(
8.10983
15.5496
0.0545925
8.12891
-0.0170205
15.5017
-14.194
14.2328
8.01999
-2.55888
-0.595838
8.70338
15.2613
14.9508
5.09555
-0.0515589
13.1398
-10.5827
8.03414
-0.477451
15.7501
8.04789
8.05968
8.01071
10.4526
15.7709
15.0548
-0.178771
0.000294769
-0.157079
-0.0170418
-0.0826692
-0.0697799
15.3052
15.3922
15.429
7.75279
6.55881
-11.3296
-12.9509
-10.7089
-14.3202
13.944
13.9818
-7.79803
14.2065
14.5196
7.92472
8.01929
8.02538
8.02141
8.02053
8.02627
2.86328
-2.79274
-3.55832
-2.01825
-1.83274
0.452448
-0.6432
-0.739981
-0.514559
-0.478427
7.0658
8.57133
8.46762
8.84103
9.08288
15.4489
15.4029
15.4459
15.3029
15.331
15.2238
15.178
14.9409
14.9604
14.9598
15.0484
2.83011
-2.20348
7.98179
9.37957
-0.0112099
-0.0337327
-0.00278962
12.7342
12.9987
13.1003
13.4364
7.80955
-10.2723
-12.9049
8.04126
8.03569
8.06263
8.06879
8.04478
8.0437
-0.391164
-0.389054
-0.479708
-0.453178
-0.505846
15.4393
15.27
8.00673
7.99092
9.32588
10.0007
9.65261
3.40746
10.7752
11.5414
13.981
15.1197
15.3921
15.2895
15
14.9123
15.1298
15.1668
0.274937
0.0581799
-0.0595294
-0.0622961
-0.0598139
7.7106
7.64219
8.04461
7.7895
7.81626
5.96178
5.08495
7.09066
7.53426
-9.12792
-11.1578
-11.014
-11.2418
-14.0847
8.79896
13.6873
13.8567
-7.45662
-5.49322
-8.99736
-5.02293
-6.64054
7.84969
7.9045
7.87096
7.97667
7.94239
7.95701
8.04775
8.02923
8.03947
3.22659
4.10844
2.28413
2.06582
-6.3961
-3.80771
-6.17883
-1.48637
-1.29901
0.549633
0.703723
0.333043
0.260802
-1.03785
-0.78775
-0.937423
-0.419373
-0.409915
6.91808
6.68169
7.23303
7.33867
8.15303
8.20707
8.35951
8.28583
15.106
15.1285
15.1441
15.1016
-7.56024
-20.8846
11.1273
11.8926
-0.00920477
-0.0205953
0.00411737
-0.014177
-0.0157701
-0.00464334
0.031844
0.00415032
-0.00237418
0.00348014
12.5768
12.6141
7.69332
8.29196
7.08877
6.97886
8.00467
8.00448
8.02278
8.00737
-0.378722
-0.373871
-0.389627
14.564
15.0188
14.8922
2.50053
0.25439
4.53595
5.12232
12.2598
11.8288
12.3068
14.3007
14.4501
15.1673
15.203
15.2046
15.2224
15.2952
15.3245
15.2626
7.43978
7.59029
7.50911
8.01
8.02941
8.01959
8.10168
8.05928
8.07385
4.51075
3.34328
8.45301
8.14508
7.73949
8.08949
8.59101
8.92466
13.1628
13.493
13.4837
-3.51814
-4.83708
1.74885
1.5283
5.7835
6.45328
6.09929
15.0564
14.9855
15.0655
15.0229
14.967
15.0047
3.46342
-3.35637
0.0635165
13.7281
12.746
13.2247
0.164405
0.0657666
0.121597
8.14993
8.69604
4.55172
5.9804
5.6501
14.7258
14.8493
14.8523
14.6386
14.7376
14.9085
14.9149
8.55497
8.39086
8.71196
8.65293
8.88081
-0.602868
-2.56335
-3.05998
0.816823
1.24213
1.05023
8.50138
8.58378
8.823
7.99434
8.00207
0.0466247
0.0567237
8.04135
8.0422
-0.0533018
-0.0545577
13.0002
6.14554
0.325046
8.00547
7.89107
8.01318
-2.08171
2.58222
-0.558845
0.406598
0.0563041
8.5357
7.29549
6.58241
-0.058919
-0.0723123
-0.34906
-5.19242
7.98189
7.97126
8.00839
8.0078
8.01575
-0.0806874
-0.0547921
-0.0429506
-0.294797
-0.252562
-0.352983
7.7131
8.057
-4.52252
8.0137
8.02836
8.02406
8.01092
8.03395
8.03144
-0.0636445
-0.0571157
-0.0779047
2.21186
4.98341
14.8295
15.9099
14.0886
12.7902
11.4795
13.9425
14.4916
13.7101
14.8815
13.1526
13.5295
1.52134
-1.56515
1.86819
0.484992
7.99133
7.99456
7.87982
7.85339
7.9883
7.9825
8.00433
8.00032
8.01764
8.01794
-1.25051
-1.58674
-2.34437
-3.232
2.80256
3.92486
1.89114
1.92604
1.08496
-0.463015
-0.457365
-0.526681
-0.664267
0.0500101
0.0367893
0.256564
0.257986
0.0672336
0.0220437
-0.0365756
0.0229624
0.0943485
8.36839
8.31954
8.55196
8.73956
7.43942
7.47633
6.93581
7.28442
7.03757
5.79284
6.55302
6.05109
-0.0573432
-0.0579436
-0.0450241
-0.0595695
-0.0453932
-0.125267
-0.117999
-0.166163
-0.169781
-0.122486
-0.333209
-0.363766
-4.57195
-6.76287
7.34341
6.27895
3.02224
7.9176
7.95533
7.93484
7.98172
7.99702
7.99573
7.97844
7.95812
8.02605
8.01894
8.05191
8.08915
-2.96382
-6.06928
-2.8828
-4.41864
6.46636
11.6497
5.28837
4.09008
3.77885
8.8848
13.854
14.6492
16.1471
15.9722
8.31652
10.5147
8.95214
11.2916
9.94752
14.4669
14.7877
14.9703
14.747
14.3688
4.759
9.13253
-3.33932
-2.41782
1.32132
-0.866455
14.8687
12.7108
12.9999
13.4009
14.0041
13.0825
12.5539
12.5893
13.0998
13.3766
8.55046
3.09944
2.35647
1.2136
12.4753
9.59113
10.8849
9.03279
8.00317
7.99521
8.00018
7.76819
7.83523
7.79037
7.93531
7.98077
7.97014
7.98243
7.94772
7.95296
-1.33988
-1.31166
-1.71478
-3.11268
-3.22233
-4.04087
-2.47057
0.572917
0.175842
2.7411
3.82018
-0.137909
-1.85975
-1.73921
-0.298872
1.20208
1.32321
0.578728
1.25245
1.28511
1.00604
1.6191
1.63167
-0.231956
-0.0843371
-0.35465
-0.320133
0.410086
0.722409
0.677902
-0.0124096
-0.0558754
-0.386821
-0.378543
0.0899578
-0.204695
-0.00352004
-0.0760515
-0.0913883
-0.0491041
-0.0318106
-0.0557968
0.00971756
0.00754911
8.11775
8.21501
8.18049
8.69744
8.88439
9.23568
8.6568
7.6959
7.59377
7.62474
7.28038
7.43519
7.40679
7.67828
8.04622
8.17044
7.93637
7.99902
7.86033
7.85087
7.62535
7.72533
7.28655
6.92771
6.71904
-0.107967
-0.0584594
-0.0686682
-0.127979
-0.0580962
-0.0739292
0.0014932
0.0114397
0.00211038
-0.0152151
-0.0337454
-0.153214
-0.144168
-2.27204
-0.459998
-5.23588
-5.6933
-7.19636
7.12816
8.0884
6.09331
4.91112
5.14404
6.50355
6.99219
4.20148
5.35045
5.36702
8.23804
8.06403
7.95867
7.94966
7.93659
7.93713
7.94833
-1.08938
0.955479
0.176579
1.72907
6.62061
7.15677
4.36938
4.65483
5.49889
5.33396
11.6698
12.0892
10.5807
11.1626
11.3037
7.00289
8.9151
10.103
9.05244
10.1529
10.7945
9.75644
10.5995
9.07415
8.19
8.1523
6.67505
7.47848
6.97079
6.3968
8.35751
7.91796
8.10349
7.99501
8.39789
9.32008
9.14309
9.49319
9.94589
8.19942
7.27316
7.6389
8.18153
7.18694
7.45018
7.84968
4.23534
5.11136
5.49553
4.72831
5.87299
5.2167
5.31419
4.85707
5.48498
3.84427
3.90247
1.81862
7.75264
13.8376
14.5772
14.9801
14.031
13.5992
13.7584
14.383
14.4894
12.1251
12.6188
12.5752
11.5176
12.2695
12.8494
12.8292
8.36545
6.25844
6.21843
4.99104
1.87665
2.83683
7.20296
5.57752
3.79752
3.6891
7.87819
5.02244
6.65072
7.97357
6.55838
5.02327
10.1305
11.5126
11.3281
10.7309
8.58195
8.9145
9.38934
10.2635
10.9853
11.81
7.85674
7.92713
7.92165
7.89236
7.90704
7.94649
7.97076
7.98571
7.96021
7.9829
7.99064
-0.663614
-0.507017
-1.01188
-0.893689
-0.419282
-0.698561
-0.424542
-0.751735
-0.428216
-0.379574
-0.594522
-0.995366
-0.878361
-0.617835
1.13862
1.47591
1.35965
0.630489
2.26539
3.37964
4.04323
3.36186
1.85906
2.19072
2.54411
0.221949
0.36999
0.2276
0.48718
0.402679
-0.355991
-0.333662
-0.243455
-0.152023
-0.231755
-0.246972
-0.341901
-0.280663
-0.305022
-0.342889
-0.355356
7.72725
7.65915
7.77059
7.66246
7.60948
7.8538
7.87821
7.94153
8.00848
8.07823
7.94403
8.06455
8.11072
-0.0874207
-0.16135
-0.13361
-0.238106
-0.174119
-0.191148
-0.245826
2.83347
0.711387
1.94598
0.0835536
-3.30177
-1.80519
6.36404
7.71582
8.14357
7.63363
6.51835
6.73504
7.84989
8.22553
4.29597
5.53298
4.76614
7.65518
7.48855
8.20885
5.82061
3.62716
5.95149
6.42464
4.45828
5.27369
4.86717
2.46704
3.09346
4.00386
5.50304
5.87601
5.39754
5.1227
4.88165
6.08446
5.74776
6.98253
7.62753
3.67294
3.33969
2.19283
11.4076
11.8004
12.1034
11.6098
12.1209
10.1662
10.0502
10.4957
10.769
10.4091
3.37845
3.80449
2.62486
6.1703
7.0356
8.15868
7.0624
12.0034
10.9369
13.3471
13.1746
11.932
10.9505
11.0046
12.0782
5.07105
7.78454
6.9779
7.45184
5.67519
3.85327
10.6222
10.619
11.3702
11.9226
11.2917
11.988
7.87521
7.88965
7.84301
7.80339
7.79996
7.85144
0.401733
0.0341773
0.539132
0.208217
-0.20767
-0.215124
-0.129705
-0.19179
-0.196593
-0.164451
-0.104695
-0.0607618
3.37353
3.55673
0.935482
2.32204
-0.913622
-2.11664
-2.9061
0.148034
1.80349
1.30198
4.742
6.06368
5.14805
5.74612
4.49303
4.97649
7.72356
7.38953
8.02833
6.4849
6.61447
6.93176
4.66882
5.87579
11.6441
11.0822
9.33037
8.55874
8.49943
10.2596
8.8987
7.83907
8.70302
9.95879
9.8472
5.29052
5.28679
6.16595
6.7427
5.19501
5.65417
5.25767
5.99732
5.5474
)
;

boundaryField
{
    wall-4
    {
        type            zeroGradient;
    }
    velocity-inlet-5
    {
        type            zeroGradient;
    }
    velocity-inlet-6
    {
        type            zeroGradient;
    }
    pressure-outlet-7
    {
        type            fixedValue;
        value           uniform 0;
    }
    wall-8
    {
        type            zeroGradient;
    }
    frontAndBackPlanes
    {
        type            empty;
    }
}


// ************************************************************************* //
