/*--------------------------------*- C++ -*----------------------------------*\
| =========                 |                                                 |
| \\      /  F ield         | OpenFOAM: The Open Source CFD Toolbox           |
|  \\    /   O peration     | Version:  4.0                                   |
|   \\  /    A nd           | Web:      www.OpenFOAM.org                      |
|    \\/     M anipulation  |                                                 |
\*---------------------------------------------------------------------------*/
FoamFile
{
    version     2.0;
    format      ascii;
    class       volVectorField;
    location    "10";
    object      U;
}
// * * * * * * * * * * * * * * * * * * * * * * * * * * * * * * * * * * * * * //

dimensions      [0 1 -1 0 0 0 0];

internalField   nonuniform List<vector> 
918
(
(4.98429 -0.000776698 0)
(0.00493889 4.9659 0)
(-0.06706 5.34521 0)
(4.97869 0.00184446 0)
(0.00457919 6.11631 6.52985e-20)
(-0.00677585 4.94767 -3.1362e-17)
(4.18495 5.92021 1.02427e-17)
(2.27076 1.28729 -2.89689e-19)
(4.99992 -7.09879e-05 0)
(0.40453 4.65403 0)
(0.113674 4.08448 0)
(4.55934 -0.00213167 0)
(0.0104587 4.92891 0)
(-0.0307896 4.79661 0)
(-0.082826 6.09639 -5.26784e-18)
(0.013558 5.90442 4.02008e-20)
(3.14102 0.742246 1.86922e-17)
(1.09366 6.15152 7.57236e-18)
(4.96066 0.00722124 0)
(0.0461395 4.15832 0)
(1.02714 1.11404 -1.50314e-17)
(5.00211 -0.00445444 0)
(4.99998 -0.00900667 0)
(4.97491 -0.00631311 0)
(4.11467 0.0745658 0)
(0.038636 4.3235 0)
(-0.0229099 4.91335 1.41008e-17)
(-0.101905 5.42558 0)
(-0.12925 5.96139 0)
(-0.106989 5.35416 0)
(-0.0163723 6.78059 0)
(0.0159618 6.15177 -5.64115e-20)
(0.0135161 5.90951 0)
(-0.0216045 4.98714 -1.20869e-21)
(-0.0172421 5.00548 2.3974e-17)
(0.00216394 5.00076 0)
(4.8874 -0.0136558 0)
(2.10633 2.96347 4.16219e-18)
(4.52141 5.82237 -1.39779e-17)
(5.12987 5.18419 1.6303e-17)
(3.62683 6.21836 -2.07891e-18)
(3.36371 6.35477 1.21247e-17)
(2.40907 1.34104 2.80586e-19)
(2.47485 1.22968 0)
(6.11589 3.10994 0)
(2.20896 1.38248 1.28766e-18)
(2.02918 1.33353 -1.34972e-18)
(4.92151 -0.00899667 0)
(5.00026 0.000342205 0)
(4.99993 0.000592655 0)
(5.00366 -0.00766095 0)
(5.00089 -0.000469779 0)
(5.00023 0.000285988 0)
(0.248211 5.3909 -5.1669e-18)
(0.118444 5.33247 0)
(0.566221 4.91214 0)
(0.0743271 5.17039 0)
(0.276878 4.43928 0)
(0.0562708 5.85641 0)
(0.0136544 4.90862 0)
(0.131311 4.10957 0)
(0.00304258 4.89331 0)
(0.0992397 4.07442 0)
(4.94613 -0.00357155 0)
(4.73418 0.05375 0)
(4.64534 0.000119004 0)
(4.66914 0.0641506 0)
(4.45518 0.0301213 0)
(0.0147965 4.99995 1.22143e-17)
(0.0122209 5.0054 0)
(0.0070742 5.00414 0)
(0.0138654 4.99651 1.46166e-22)
(0.00814107 4.95764 -1.78882e-17)
(0.0153967 4.98248 0)
(0.0094207 4.90242 0)
(0.0438018 4.906 3.79469e-23)
(-0.0125797 4.83275 0)
(0.0697007 4.86679 0)
(-0.0498956 4.71767 0)
(0.864876 7.08045 0)
(-0.231851 7.36772 0)
(0.390144 6.24277 4.93752e-18)
(0.0491206 5.51417 0)
(-0.0623007 6.44893 0)
(0.0128205 6.14802 -3.96333e-20)
(0.0177584 5.88982 2.36254e-21)
(3.30853 0.722102 -7.0306e-18)
(3.30889 0.327081 -6.86356e-18)
(3.08155 0.917123 -1.93354e-17)
(3.03943 0.654487 -1.40163e-17)
(0.891902 3.94198 0)
(1.51713 6.72312 -9.71342e-18)
(2.08254 6.50378 1.61673e-17)
(4.98526 0.00980696 0)
(4.93807 0.00635802 0)
(5.00029 0.000820813 0)
(5.00243 0.00952668 0)
(5.00292 0.0099765 -3.9634e-17)
(4.99154 0.00941062 2.79649e-17)
(-0.040801 4.92373 0)
(0.0649989 4.14519 0)
(-0.138333 5.47343 0)
(-0.0739616 5.02179 0)
(0.00374815 4.23391 0)
(1.2943 1.30719 4.52429e-18)
(1.41618 1.2513 0)
(4.99444 -0.00771622 0)
(4.95409 -0.0069651 0)
(4.53709 0.0657215 0)
(4.34657 0.0604936 0)
(4.31784 0.0595413 0)
(5.44882 -0.0846975 0)
(4.10914 0.0921052 0)
(3.77635 0.151225 2.60087e-17)
(0.00532917 4.97774 1.41696e-17)
(0.118356 4.81705 0)
(0.188049 4.76129 0)
(-0.0646358 4.58359 0)
(-0.0061986 4.98672 1.42023e-17)
(-0.0268313 4.91021 0)
(-0.0132325 4.98754 -4.22175e-17)
(-0.0190963 4.92411 1.41464e-17)
(-0.0748718 6.39143 0)
(-0.0480906 6.36724 0)
(0.0151223 6.13169 2.05485e-21)
(0.0157929 6.11233 0)
(0.0110359 5.90601 0)
(4.95595 0.00229943 0)
(4.88599 -0.0166815 0)
(4.83955 0.0033838 0)
(4.96086 -0.000526634 0)
(4.89306 -0.0116468 0)
(2.24944 4.0714 -5.19016e-18)
(2.20441 3.42102 0)
(2.05416 3.8661 6.36998e-19)
(2.00933 2.66868 0)
(4.81956 5.24129 -4.03508e-18)
(5.38699 4.69541 7.8075e-18)
(1.95185 6.74597 0)
(2.85911 6.53718 0)
(2.56542 6.58515 0)
(1.73199 2.68973 -3.98625e-18)
(2.62308 1.23048 0)
(2.68968 0.971058 4.00231e-18)
(5.5151 4.40291 0)
(5.69467 3.75767 0)
(5.97705 3.55738 -7.84401e-18)
(6.24585 2.86613 0)
(6.47727 2.15844 1.32547e-18)
(4.96415 -0.00401862 0)
(4.96633 -0.0073147 0)
(4.90603 -0.0112677 0)
(4.98546 -0.00794135 0)
(4.97674 -0.00764337 0)
(4.93673 -0.00721831 0)
(5.00013 0.00296794 0)
(5.00068 0.00166093 0)
(4.99996 0.00103896 0)
(0.140448 5.68281 2.8568e-18)
(0.343827 5.21239 0)
(0.0688853 5.94635 4.50366e-18)
(0.166803 5.53236 -3.7586e-18)
(0.778549 6.00543 -6.30469e-18)
(0.184092 5.53783 0)
(0.55028 5.5133 0)
(0.0520384 5.05367 0)
(0.221524 4.27081 0)
(0.0157955 6.20693 -6.78111e-21)
(0.0767299 5.83439 0)
(0.0107799 6.22626 -2.5855e-19)
(0.0418447 5.88377 4.42751e-19)
(0.0360682 4.96229 0)
(0.025362 4.92296 0)
(0.16801 4.16179 0)
(-0.00375213 4.88413 0)
(0.0838331 4.08203 0)
(5.04199 0.0416715 0)
(4.99658 0.0151295 0)
(4.99588 0.0260248 0)
(4.91184 -0.00791287 0)
(4.75984 -0.00791596 0)
(4.84659 0.0387507 0)
(4.79848 0.0465338 0)
(4.70676 -0.00620758 0)
(0.0145687 5.06245 -1.18175e-19)
(0.00999752 5.06252 0)
(0.0170566 4.96913 0)
(0.00583497 4.87662 0)
(2.22895 8.26298 0)
(2.95961 7.19562 2.06506e-18)
(0.214193 5.65433 0)
(0.0356306 5.18603 0)
(-0.0553893 6.31385 0)
(-0.0624787 6.36843 0)
(-0.0614729 6.3317 0)
(-0.0208041 6.74251 -2.98043e-20)
(-0.0469079 6.54951 0)
(-0.0440814 6.61065 0)
(0.0260541 5.88607 2.7129e-20)
(0.0114634 6.19433 1.61287e-20)
(0.0137608 6.16687 -2.98136e-21)
(0.0217415 5.88874 0)
(3.42731 0.621941 9.60115e-18)
(3.46066 0.421909 -9.3932e-18)
(0.620969 4.62788 0)
(1.11683 3.62058 -2.54201e-18)
(0.483019 4.80812 -7.58283e-18)
(0.711197 4.24927 7.60714e-18)
(4.89088 0.00495104 0)
(4.9626 0.0139718 0)
(4.97143 0.0122413 0)
(4.91648 0.00574947 0)
(-0.0137838 4.8888 0)
(-0.0273245 4.90469 0)
(0.0729077 4.10769 0)
(1.94572 1.43375 1.18093e-17)
(1.60678 1.418 -1.43261e-17)
(1.7223 1.3201 0)
(5.92649 0.465415 2.91551e-19)
(6.00563 0.107448 0)
(5.52661 0.191199 0)
(5.19348 0.0274652 0)
(3.60199 0.35335 0)
(3.75607 0.340976 -4.14162e-17)
(3.55667 0.123824 1.7612e-17)
(0.04143 5.02885 1.32972e-17)
(-0.0182096 4.93841 1.74771e-19)
(0.00794486 5.05101 -2.82096e-19)
(0.0147217 5.04739 1.00054e-17)
(-0.0154716 4.99707 4.51356e-19)
(-0.013816 4.94835 -1.80222e-21)
(-0.0176252 5.01349 -7.95217e-18)
(0.0117407 5.02867 5.43395e-18)
(0.0058571 5.03458 -8.8766e-18)
(4.97699 0.0194208 0)
(4.96507 0.0110245 0)
(4.89274 -0.0124994 0)
(4.94772 0.0166367 0)
(4.92687 0.020041 0)
(4.86472 0.00428122 0)
(4.88139 0.0309561 0)
(4.90066 0.0239087 0)
(4.80402 -0.00494067 0)
(2.43161 4.35905 -4.56976e-18)
(2.23184 3.97106 0)
(1.86582 2.56105 1.18899e-18)
(1.75748 3.73671 9.19549e-18)
(1.89487 3.7743 -5.46959e-18)
(1.92319 2.56231 1.0516e-17)
(1.35303 3.90704 1.9585e-17)
(1.61371 2.89016 3.88686e-18)
(2.98116 1.07017 1.50554e-17)
(2.77635 1.12502 3.41915e-18)
(2.83503 1.03249 6.85237e-18)
(6.33098 2.17599 3.94573e-18)
(6.50609 1.54803 3.93313e-18)
(0.0413131 6.07834 1.7675e-18)
(0.138064 5.67952 0)
(5.26055 0.104479 0)
(5.12345 0.0591397 0)
(5.06915 0.00985048 0)
(0.000341405 5.07701 0)
(0.0300977 4.93528 2.00189e-17)
(0.0212717 4.95362 0)
(-0.0026106 4.85449 -1.97667e-17)
(-0.000582985 5.09401 5.21746e-18)
(0.0147149 5.08158 0)
(2.45352 4.64206 3.44905e-19)
(3.09003 5.78209 -1.14298e-18)
(2.32834 4.8019 -1.76399e-18)
(0.082672 5.12469 -1.30758e-17)
(0.125846 5.31079 0)
(0.0371506 5.05527 0)
(0.00913195 6.21404 -5.94502e-20)
(0.00808723 6.21744 -1.25095e-19)
(0.0300838 5.87491 -4.25296e-20)
(0.804122 4.35157 8.03473e-18)
(1.27835 3.45078 -5.66702e-18)
(0.212162 5.42998 5.16518e-18)
(0.320828 5.14473 -6.38341e-18)
(0.509588 4.76703 7.73114e-19)
(0.0260218 5.12535 -3.36713e-17)
(0.0325401 5.11941 3.56733e-17)
(0.00532479 4.98617 1.43589e-17)
(0.0181579 4.99515 -1.44435e-17)
(-0.0224839 4.91424 -1.46252e-17)
(0.0153223 5.09922 -3.98796e-17)
(0.0098264 5.10195 3.67962e-17)
(1.49509 3.74543 0)
(1.62797 3.73427 -1.96387e-17)
(1.78066 2.65498 8.74751e-18)
(1.21703 3.93956 1.08002e-17)
(1.50985 3.00898 -1.68733e-17)
(6.33409 0.885282 1.18777e-19)
(6.47473 1.31848 0)
(6.47609 0.636663 1.30233e-18)
(0.0208074 6.20274 -1.04368e-20)
(0.0336322 6.13293 0)
(0.110942 5.7593 0)
(0.935856 4.22264 -2.96904e-18)
(1.06583 4.12608 -6.80218e-18)
(1.40306 3.20404 1.25639e-17)
(5.00736 -0.0102618 0)
(5.00865 -0.00681779 7.02298e-18)
(-0.075377 6.33882 0)
(-0.11379 6.40757 0)
(5.00226 0.00399614 8.72111e-21)
(5.00304 0.00901481 1.55693e-17)
(-0.0216001 6.74439 3.36844e-20)
(-0.0140901 6.78089 0)
(0.241009 5.39612 1.20997e-17)
(1.1019 6.35181 0)
(5.26126 3.45622 -3.87811e-19)
(5.00919 0.0146496 -1.03851e-20)
(5.026 -0.00626568 0)
(5.0015 0.00140772 2.6833e-21)
(0.348773 6.58117 0)
(0.307844 6.52267 0)
(0.0236057 6.33397 0)
(0.0308849 6.85468 3.33896e-19)
(-0.0127209 6.83875 4.3644e-20)
(4.89888 0.0935551 9.37642e-20)
(5.12719 0.0505446 0)
(5.25588 0.124819 0)
(-0.057411 6.39573 0)
(-0.00857468 6.81416 0)
(-0.0446006 6.34412 0)
(1.0331 7.0282 -4.22269e-18)
(5.01312 -0.00758538 0)
(5.01151 -0.0146103 0)
(5.00257 0.00246347 9.30244e-18)
(5.00612 -0.00398728 -1.0545e-17)
(5.00092 -0.000303684 0)
(-0.0577126 6.33225 0)
(-0.054389 6.32218 0)
(-0.0572641 6.32548 0)
(-0.0463443 6.33966 0)
(-0.0717274 6.31631 0)
(-0.0746236 6.34054 0)
(5.05501 0.00677084 0)
(4.99691 0.0273752 1.35382e-20)
(3.53065 6.11871 7.37923e-18)
(5.00211 0.00195733 -8.81531e-18)
(5.00305 0.00484464 1.07425e-17)
(5.00144 0.00314076 0)
(5.00898 0.0126587 9.48443e-18)
(5.00463 0.00877692 -1.17869e-17)
(5.00552 0.0127719 0)
(-0.0120259 6.8258 0)
(-0.0140832 6.79474 -6.1912e-20)
(-0.0121011 6.8122 4.53118e-20)
(5.81753 1.32172 7.21113e-18)
(5.52491 0.404771 0)
(0.342884 4.94776 -2.14462e-17)
(0.251896 4.67783 -1.42102e-18)
(0.628644 5.35251 2.87764e-17)
(0.498741 5.5025 -8.25749e-18)
(0.538865 5.60572 0)
(0.114698 5.19515 5.47367e-18)
(0.34091 5.23125 2.10902e-17)
(0.324637 5.3604 -1.02774e-17)
(0.128144 5.08539 0)
(3.20867 1.75872 0)
(2.92689 1.9419 0)
(5.31601 3.55561 2.04982e-19)
(5.04006 4.2357 9.77186e-19)
(5.57124 2.92483 0)
(5.54882 2.81324 0)
(5.01279 0.015835 -1.77698e-17)
(5.01184 0.0179119 2.05431e-17)
(5.03464 -0.00429373 0)
(5.03065 -0.0108605 0)
(5.00675 0.00788944 0)
(5.01002 0.00813112 0)
(5.00388 0.0038493 0)
(5.00801 0.0104381 0)
(5.00551 0.00735824 0)
(5.00406 0.00761412 0)
(0.315779 6.55728 0)
(0.241778 6.46456 0)
(0.449522 6.75938 0)
(0.397365 6.77499 0)
(0.354776 6.47366 0)
(0.367464 6.51872 -2.80147e-18)
(0.268635 6.64284 0)
(0.20437 6.70268 1.36879e-18)
(0.11586 6.80682 -1.14475e-18)
(0.0120519 6.32669 0)
(0.0125218 6.30082 0)
(0.0444268 6.34812 0)
(0.0619672 6.25701 0)
(0.0528485 6.47389 1.59518e-21)
(-0.00727307 6.85613 2.2228e-20)
(0.0275979 6.89451 1.88397e-19)
(-0.00320576 6.92102 0)
(-0.0154466 6.85922 -8.19363e-20)
(-0.0194557 6.85365 -1.2509e-20)
(0.0581655 6.45819 1.95922e-20)
(0.0118627 6.6768 -3.45214e-20)
(0.0115467 6.72553 -2.00016e-19)
(4.93617 0.112712 1.84006e-17)
(4.93959 0.0582681 -2.28276e-17)
(4.89556 0.139453 -1.93086e-17)
(4.84046 0.10753 2.4552e-17)
(5.13102 0.0576827 0)
(5.09584 0.00929172 0)
(5.23757 0.164055 0)
(5.16498 0.079944 0)
(5.16195 0.0452073 0)
(5.46128 0.352598 0)
(5.30779 0.211337 0)
(5.30571 0.174947 0)
(-0.0314838 6.67338 8.34014e-21)
(-0.0438997 6.46438 0)
(-0.0460293 6.54708 0)
(-0.00977577 6.82954 -2.68323e-20)
(-0.0089097 6.84223 4.29229e-22)
(-0.0370215 6.35833 -1.31621e-19)
(-0.0521011 6.34936 1.3728e-19)
(-0.0465202 6.34777 0)
(-0.0582487 6.34495 0)
(-0.0661262 6.33895 0)
(-0.0369091 6.34512 0)
(-0.0260879 6.31342 0)
(1.63599 7.08641 6.38603e-18)
(1.61937 7.12936 3.04752e-18)
(1.2181 5.9437 -2.02425e-18)
(0.712372 6.18751 5.16434e-18)
(1.19905 5.92033 1.07022e-18)
(5.02651 -0.0046854 0)
(5.01879 -0.00726309 0)
(5.0184 -0.0138793 0)
(5.00748 0.00300962 0)
(5.00507 0.000714564 0)
(5.00777 -0.00189966 0)
(5.01206 -0.000370714 0)
(5.01584 -2.72982e-05 0)
(5.00602 0.0336713 1.7515e-17)
(5.00583 0.0203046 -2.13715e-17)
(5.00099 0.0368005 -1.88761e-17)
(4.98852 0.0384863 2.10813e-17)
(3.49341 6.20587 0)
(2.9519 6.61717 6.36848e-18)
(4.14135 5.74298 2.78581e-18)
(4.12837 5.73858 -3.65327e-18)
(3.07343 5.402 1.64489e-17)
(4.07574 0.675943 1.08872e-17)
(5.55859 0.466267 0)
(5.75877 0.875903 -5.51011e-18)
(5.61184 0.775539 -2.24376e-19)
(4.79904 0.649868 0)
(0.721113 5.03365 1.53758e-17)
(0.654961 4.67519 -2.58792e-17)
(0.352221 3.4754 1.65184e-17)
(0.757626 1.17427 -7.75532e-18)
(0.929492 6.23664 6.01447e-18)
(0.610826 5.88358 0)
(0.71321 6.01486 -7.82746e-18)
(0.966978 5.25375 -4.22925e-17)
(1.16096 5.65591 0)
(0.0438718 5.11443 9.45208e-19)
(0.0691711 5.12781 -9.67547e-18)
(0.0562966 5.11732 1.51008e-17)
(0.160662 5.1482 0)
(0.165016 5.20562 0)
(3.33353 5.54488 0)
(2.77023 4.01221 -8.78336e-18)
(4.64508 5.07885 -1.41556e-18)
(4.69913 5.13668 0)
(4.20944 4.52788 -1.11303e-18)
(5.09095 4.39552 5.48241e-19)
(1.9841 1.95796 -1.95736e-17)
(3.48254 1.73253 -6.01877e-19)
(3.35687 1.54449 7.95216e-18)
(2.92997 2.12676 6.28503e-19)
(2.58445 1.94744 -2.545e-17)
(3.26881 1.79934 0)
(3.3729 2.16478 1.14319e-17)
(3.34927 2.14008 0)
(3.16004 2.02594 0)
(2.99791 1.71503 0)
(3.77448 3.02926 6.87313e-18)
(5.84941 1.41395 -5.88508e-18)
(5.78003 2.11938 0)
(5.70289 2.01033 0)
(3.74216 1.15787 1.21353e-17)
(3.95334 2.64182 -7.02701e-18)
(3.53521 2.46434 1.20834e-17)
(4.42739 2.11745 -1.34368e-17)
(5.00971 0.0235599 1.07511e-17)
(5.01158 0.0183228 -1.03018e-17)
(5.01036 0.0197839 0)
(5.05784 0.00717288 0)
(5.04371 -0.00121171 -1.11369e-17)
(5.04219 -0.00889512 1.09251e-17)
(5.01922 0.0308358 0)
(5.01308 0.0345888 0)
(5.01122 0.0109023 0)
(5.01144 0.0140052 0)
(5.01513 0.0132416 0)
(5.01458 0.00952935 0)
(0.190048 6.50537 0)
(0.160739 6.37156 0)
(0.609463 6.69484 1.27707e-18)
(0.979369 6.95767 1.99948e-18)
(0.526976 6.93499 4.27094e-18)
(0.597322 6.9411 -7.06733e-18)
(0.652666 6.78438 0)
(0.624398 6.27641 -2.63321e-19)
(0.568006 6.3006 0)
(1.09488 5.95233 -1.53011e-18)
(0.863491 6.02076 5.17966e-18)
(0.786355 6.31688 2.26427e-19)
(0.989396 6.65261 9.34732e-19)
(0.87038 6.6714 -7.66329e-19)
(1.29351 6.35364 -3.18504e-19)
(0.979559 6.17113 0)
(1.05684 6.13303 5.1598e-19)
(0.143521 6.57085 -2.09585e-19)
(0.132589 6.75213 0)
(0.258942 6.53302 1.29694e-18)
(0.212503 6.57772 0)
(0.18292 6.71681 -1.50436e-18)
(0.128351 6.79013 0)
(0.0601955 6.3964 2.47387e-19)
(0.0961223 6.35953 0)
(0.0924367 6.43887 0)
(0.050008 6.43244 -2.84727e-19)
(0.044145 6.86176 -1.84995e-20)
(0.0954933 6.84586 1.33528e-18)
(0.0527961 6.90313 7.63664e-21)
(0.00740817 6.44891 -2.60653e-20)
(0.0195046 6.4042 -1.52602e-20)
(-0.00643548 6.31503 0)
(-0.00332489 6.28571 0)
(0.136401 6.30744 1.34147e-19)
(0.159167 6.43419 -1.73376e-19)
(0.137528 6.35255 9.03189e-20)
(0.22015 6.34268 0)
(-0.0324875 6.60641 1.76669e-19)
(-0.0223977 6.78903 -7.16126e-20)
(-0.0221433 6.72627 1.21542e-20)
(0.00741018 6.44167 3.36992e-20)
(-0.025546 6.76932 7.32381e-21)
(-0.015512 6.7515 4.08622e-20)
(4.98735 0.0468633 -1.1209e-17)
(4.96935 0.0708221 1.22691e-17)
(4.96865 0.0398996 0)
(4.87306 0.244287 1.80718e-17)
(4.83579 0.185672 -2.05117e-17)
(4.73328 0.172347 2.32679e-17)
(4.8566 0.43837 -2.43271e-18)
(5.07419 0.0102695 0)
(5.09679 0.0249963 1.05079e-17)
(5.06664 -0.0013247 -1.09215e-17)
(5.15229 0.168318 -6.65869e-19)
(5.13036 0.114986 5.68055e-18)
(5.11088 0.250859 0)
(5.06812 0.20514 -2.07113e-18)
(4.98741 0.14632 0)
(4.98107 0.121299 0)
(5.02054 0.0377358 0)
(5.00864 0.0381648 0)
(5.03382 0.115006 4.29393e-18)
(5.03096 0.0935052 -9.53241e-18)
(5.07426 0.146368 -4.45095e-18)
(5.05508 0.141871 -4.92388e-18)
(5.14349 0.26785 9.82014e-18)
(5.26761 0.227036 0)
(5.29155 0.418 0)
(-0.0284288 6.60065 1.32209e-19)
(-0.0396517 6.48327 8.20322e-21)
(-0.0400717 6.48401 0)
(-0.0242774 6.71465 -1.31694e-19)
(-0.0283733 6.67455 -1.59253e-20)
(-0.023623 6.71072 1.71777e-20)
(-0.0146136 6.86089 1.3921e-20)
(-0.0149392 6.81051 2.18818e-22)
(-0.018649 6.77879 5.78531e-22)
(-0.00781373 6.84859 1.48321e-20)
(-0.0135099 6.85378 -1.58193e-20)
(-0.0424899 6.37341 -8.31956e-21)
(-0.0354822 6.38071 -1.76869e-19)
(1.72663 6.60915 -3.20844e-18)
(1.38119 6.36817 -9.31039e-22)
(2.9272 6.7625 -6.12455e-18)
(2.27113 7.06945 -3.38135e-18)
(2.33194 6.9998 0)
(1.32467 5.83847 1.64073e-18)
(1.40971 5.9098 2.53488e-18)
(0.856968 6.05469 5.01025e-19)
(0.845823 5.99305 -5.43618e-18)
(1.0806 5.91304 4.45085e-18)
(1.16308 5.99916 0)
(0.924317 6.12154 -3.81472e-18)
(0.492671 6.3154 7.1714e-18)
(0.682574 6.21532 -4.76527e-19)
(0.481316 6.41636 -1.0435e-17)
(2.32696 5.52634 1.16754e-17)
(1.99055 5.70164 0)
(5.01269 0.00459476 4.04434e-19)
(5.01885 -0.000227642 -2.93013e-19)
(5.01963 0.00336698 -5.35423e-18)
(5.01838 0.00533781 5.44934e-18)
(5.01383 0.00763101 0)
(3.14533 5.89233 0)
(3.25088 5.35914 0)
(3.79334 5.12068 0)
(3.25937 5.25209 0)
(3.04205 5.44283 -2.39659e-19)
(3.00919 5.42898 0)
(2.43287 5.1954 6.81657e-20)
(1.94086 5.55575 0)
(2.15686 5.39147 -6.89295e-18)
(2.24925 5.45949 4.47069e-18)
(4.04385 0.709636 0)
(3.92043 0.872914 3.21634e-18)
(4.43151 0.668338 1.66263e-17)
(4.21936 0.554858 -6.35973e-18)
(4.15252 0.454491 -1.93892e-17)
(5.13158 1.09467 -1.24691e-17)
(4.63873 1.31209 -3.53207e-19)
(4.35087 1.42451 1.55395e-17)
(4.7295 1.01181 1.27138e-17)
(4.46462 0.829564 -2.19571e-17)
(4.33443 0.897022 2.80276e-18)
(4.47235 1.24572 -6.03029e-18)
(4.33538 0.981573 0)
(4.70036 0.797986 1.1012e-17)
(4.94242 0.853452 0)
(4.89175 0.94179 0)
(5.31771 0.520771 4.2014e-18)
(5.03138 0.78125 -2.33193e-19)
(5.091 1.11024 -2.45605e-18)
(5.28853 0.939809 0)
(4.94491 0.146047 9.40698e-18)
(4.99174 0.233788 1.22893e-17)
(4.98942 0.155334 -9.99621e-18)
(5.00879 0.260981 -8.1297e-18)
(4.91606 0.276957 -1.26051e-17)
(4.68764 0.644707 0)
(4.76287 0.392612 0)
(4.70366 0.242583 -8.3234e-18)
(4.53842 0.338148 3.11172e-18)
(4.97148 0.44998 1.1559e-17)
(5.08402 0.550536 -1.30893e-17)
(5.10654 0.706315 1.24101e-17)
(4.90231 0.612307 0)
(5.14769 0.476879 0)
(5.03962 0.420483 -5.36369e-18)
(4.98934 0.405385 -9.4105e-18)
(2.82007 4.9753 2.52462e-18)
(2.56785 5.0342 -2.97006e-18)
(2.75329 5.24486 -4.35454e-18)
(2.90435 5.72804 8.44195e-19)
(3.08515 5.56725 -1.03493e-17)
(3.30574 5.61296 4.82025e-18)
(3.37881 5.43228 -2.51335e-19)
(2.93684 5.68802 -4.12216e-18)
(2.88672 5.68151 7.03237e-18)
(2.95908 6.14614 1.07684e-18)
(3.3521 5.9234 -1.35434e-18)
(3.48073 5.9119 0)
(2.92302 4.08373 -7.11648e-19)
(1.4861 2.92225 8.40271e-18)
(1.87943 2.51222 1.27264e-17)
(1.47142 2.20069 1.49018e-17)
(2.56336 2.16751 1.4234e-17)
(2.69067 2.48331 -2.34186e-17)
(2.46304 2.52628 1.8913e-17)
(2.22118 2.3042 -7.39054e-18)
(2.28447 1.84762 1.66477e-17)
(3.82358 1.3539 -6.84701e-18)
(3.59149 1.50547 0)
(3.57195 1.3709 3.0386e-19)
(3.50328 2.57942 7.19586e-18)
(3.20592 2.3627 -2.49565e-17)
(2.86341 2.4782 6.3382e-19)
(3.1 2.32767 0)
(3.39487 3.56883 6.09184e-18)
(3.99739 3.75728 6.31964e-18)
(3.70029 4.04691 -7.65347e-18)
(4.25569 3.93764 -2.2939e-18)
(4.51359 4.04513 -3.78929e-19)
(4.50895 4.11976 3.86015e-19)
(4.07857 3.20645 -1.12306e-17)
(4.49738 3.45226 2.10246e-18)
(4.8286 3.48542 0)
(4.82961 3.34101 -2.67303e-18)
(4.81009 1.61077 3.67734e-18)
(5.50729 1.47192 3.8046e-18)
(5.0585 1.27995 5.72999e-18)
(4.68766 1.73112 -7.33174e-18)
(4.99438 2.08018 0)
(5.33744 1.95759 0)
(4.24711 1.80204 5.12311e-20)
(3.99833 1.42304 0)
(4.02938 1.37745 7.68852e-18)
(4.20374 1.45912 5.34744e-20)
(4.43312 2.15317 3.84583e-17)
(4.22331 2.44125 9.14358e-18)
(4.21488 2.26627 -1.024e-17)
(3.88078 2.16552 1.07794e-17)
(3.80124 2.14492 6.6652e-18)
(3.67278 2.04497 -6.85735e-18)
(5.03627 0.0132035 1.00222e-17)
(5.01966 0.0116178 0)
(5.01938 0.011752 6.04663e-18)
(5.03022 0.0139785 -1.4527e-17)
(5.02321 0.0176655 6.75972e-18)
(5.01669 0.02617 -1.33609e-17)
(5.01378 0.0240432 0)
(5.01267 0.0225581 -2.94975e-18)
(5.01393 0.0162504 7.42882e-18)
(5.01228 0.0191182 -3.79214e-18)
(5.01103 0.0194644 2.86268e-18)
(0.0810585 6.36179 0)
(0.081122 6.45354 0)
(0.125726 6.42462 0)
(0.114466 6.27713 0)
(0.298372 6.48496 -1.16115e-18)
(0.327539 6.54942 2.63943e-19)
(0.42978 6.38987 1.69109e-19)
(0.376444 6.57369 -9.47103e-19)
(0.195966 6.45079 4.81262e-19)
(0.201722 6.45967 -4.00729e-19)
(0.282168 6.50389 -3.53078e-19)
(0.20135 6.56612 1.07686e-18)
(0.140355 6.50421 1.55858e-19)
(0.131656 6.48604 8.35492e-20)
(0.301331 6.51085 -1.32622e-18)
(0.341202 6.5015 0)
(0.462689 6.30061 1.0092e-18)
(0.49763 6.31681 4.03544e-19)
(0.795372 6.18204 -7.47067e-19)
(0.582953 6.16943 0)
(0.599122 6.07754 -5.66069e-18)
(0.811057 6.05018 4.00607e-18)
(0.710642 6.18577 -2.00829e-18)
(0.518611 6.30359 1.1953e-18)
(0.368928 6.266 0)
(0.119135 6.38235 -3.37609e-19)
(0.0649274 6.66352 -7.16921e-19)
(0.0743983 6.50159 0)
(0.0983339 6.70583 -6.20771e-20)
(0.140652 6.59284 2.50619e-19)
(0.0284569 6.38247 -5.79952e-20)
(0.0104922 6.35502 8.78828e-19)
(0.0023726 6.3626 -3.44173e-19)
(0.0134908 6.3884 -1.91351e-19)
(0.0558245 6.39597 0)
(-0.00829626 6.36035 0)
(-0.0285841 6.32784 -3.61161e-19)
(-0.0242656 6.36195 9.39499e-20)
(-0.0109608 6.36329 0)
(-0.0191876 6.31508 -2.89764e-19)
(-0.0144277 6.29118 5.79303e-19)
(5.0624 0.0563217 0)
(5.08078 0.0486253 -1.0068e-18)
(5.03843 0.087378 -7.51911e-18)
(5.0695 0.08778 0)
(5.08284 0.0889648 0)
(5.03385 0.0518461 -8.40828e-20)
(5.0264 0.051475 1.20475e-17)
(5.02341 0.0549578 1.3909e-17)
(5.00791 0.055787 0)
(4.99053 0.0535588 0)
(5.02673 0.0884489 7.30729e-18)
(4.99085 0.0812024 0)
(4.98703 0.075698 0)
(-0.0190712 6.50484 0)
(-0.0344972 6.3835 1.88779e-21)
(-0.0322065 6.40432 -4.05472e-20)
(-0.0264133 6.35886 0)
(-0.0331397 6.38459 -8.97166e-20)
(-0.0424292 6.37133 6.11072e-20)
(-0.0422676 6.36717 0)
(1.80848 5.76913 0)
(1.40151 6.09849 -5.9821e-19)
(1.30577 5.88261 0)
(1.91882 6.11259 -5.77049e-19)
(2.20675 6.65273 0)
(1.95576 6.48056 8.34424e-19)
(2.24411 5.53392 -2.09434e-19)
(2.37399 5.53258 -1.1298e-17)
(2.51636 5.52091 1.37433e-17)
(1.99828 5.67772 2.75393e-18)
(1.94417 5.54344 0)
(2.13489 5.4117 0)
(2.28258 5.58243 0)
(2.15365 5.69553 -1.00204e-17)
(1.61694 5.72556 -5.18357e-18)
(1.84752 5.50513 -1.22479e-18)
(1.93306 5.5417 8.16453e-19)
(1.569 5.78439 0)
(1.85807 5.78075 0)
(1.67207 5.83556 -3.00065e-18)
(1.72668 5.68347 0)
(3.18007 4.93068 0)
(2.85359 4.52072 -7.25026e-18)
(2.84552 4.55821 -4.06027e-19)
(2.86456 4.83424 0)
(2.90338 4.75198 1.07766e-17)
(3.82448 4.18905 -1.7544e-18)
(3.87783 4.77017 0)
(3.79798 4.68432 1.94599e-18)
(3.38788 4.71209 0)
(3.35152 4.43242 0)
(2.78538 5.34699 -5.61354e-18)
(2.69333 5.29975 -3.23522e-18)
(2.60415 5.12233 5.11357e-18)
(2.6135 5.18768 -1.77043e-18)
(2.75864 5.45879 0)
(2.66922 5.43037 2.41854e-18)
(2.9291 5.45243 -3.42839e-18)
(2.8604 5.45175 -1.85977e-19)
(2.46578 5.28746 0)
(2.55266 5.24544 -2.21283e-18)
(2.76276 5.35195 0)
(4.11041 1.09141 0)
(3.98873 0.934654 0)
(3.79496 1.02033 0)
(4.07656 1.11978 -1.15889e-17)
(3.88237 1.10845 6.96829e-18)
(4.53827 0.327002 -5.35326e-18)
(4.5575 0.53289 0)
(4.42641 0.566292 3.23129e-18)
(4.31491 0.357723 1.09218e-17)
(4.3513 0.35362 -6.88907e-18)
(2.9135 6.44186 1.3475e-18)
(2.95338 6.18742 0)
(2.90141 6.39548 3.93428e-18)
(1.66451 6.62248 -4.16138e-18)
(2.29032 5.31501 -5.63526e-18)
(2.68802 4.15882 8.77165e-18)
(2.81797 4.36397 0)
(2.39922 3.36028 -2.68033e-18)
(2.53522 3.48382 1.39981e-17)
(2.13184 2.93549 -4.21827e-18)
(2.5895 2.78076 4.32099e-18)
(3.17005 2.72401 9.36093e-18)
(3.3312 2.77388 0)
(3.03973 3.22806 0)
(2.75717 2.91473 0)
(4.7949 2.87787 7.77052e-19)
(4.32926 2.66722 -9.15209e-18)
(4.51262 2.85067 5.86878e-18)
(4.64034 2.46592 -6.97971e-18)
(5.00886 2.31233 0)
(5.17713 2.75202 -1.47176e-18)
(4.01666 1.9206 -1.51577e-17)
(3.986 1.83934 -2.00146e-17)
(3.82228 1.89285 1.22418e-17)
(3.78609 1.73724 -1.2983e-17)
(3.9758 1.5212 -9.93475e-18)
(3.80935 1.54404 1.21081e-17)
(5.02865 0.0239923 -7.51058e-18)
(5.02484 0.0242888 1.38362e-17)
(5.04 0.0186837 9.83224e-18)
(5.04686 0.0199549 -1.13382e-17)
(5.04606 0.0488831 0)
(5.02976 0.0470214 -1.86715e-17)
(0.280067 6.31986 1.21428e-19)
(0.237274 6.34317 0)
(0.383585 6.30929 7.70404e-19)
(0.416612 6.3458 -6.14886e-19)
(0.329918 6.37656 -3.18994e-19)
(0.318103 6.35071 0)
(-0.0040893 6.40658 0)
(-0.0185118 6.37846 6.36533e-20)
(-0.0242397 6.36833 -5.66713e-20)
(-0.0336536 6.38385 1.77582e-20)
(-0.020011 6.45404 7.85892e-20)
(-0.0117786 6.48151 -5.96343e-21)
(2.25312 5.37023 -7.01382e-18)
(2.14744 5.46404 7.49568e-18)
(1.95426 5.95608 -7.43916e-19)
(2.04357 5.62305 2.69941e-19)
(3.06049 5.93388 0)
(2.5485 6.37117 3.25809e-18)
(2.74228 6.3781 -3.13233e-18)
(2.2066 6.07981 7.58504e-19)
(2.54168 5.63115 0)
(2.65472 5.64432 0)
(1.56083 5.64695 7.83099e-18)
(1.48619 5.68549 1.18616e-17)
(1.63584 5.72664 -8.26348e-18)
(1.34986 5.71158 -1.60367e-18)
(1.35285 5.82979 2.4337e-18)
(1.0643 5.86386 -6.17964e-18)
(2.60299 5.46677 -7.8026e-18)
(2.74484 5.46513 0)
(2.6818 5.47225 -7.30764e-18)
(2.50563 5.4244 0)
(2.48819 5.39636 0)
(2.22792 4.88802 -6.01677e-18)
(2.54525 5.37519 -4.11458e-18)
(2.35631 5.44361 4.00649e-18)
(1.61829 3.36175 0)
(2.20977 3.60054 -4.97681e-18)
(2.5089 3.92974 -5.52633e-18)
(1.93919 4.54384 0)
(1.64645 4.91981 4.2729e-18)
(1.60658 4.75191 0)
(3.41329 3.42693 -1.32596e-17)
(3.74474 3.31222 1.87922e-17)
(3.76647 3.17317 -1.96246e-17)
(3.30867 3.23643 -1.77767e-18)
(3.5363 3.04475 -7.61864e-18)
(2.54979 5.19892 3.27367e-18)
(2.54394 5.05924 -6.34807e-18)
(2.28154 4.96298 9.39095e-18)
(2.55706 4.69733 -6.41113e-18)
(2.68055 4.95634 -5.75747e-18)
(2.66542 4.91041 -5.6727e-19)
(2.64895 4.90808 5.24402e-18)
(2.59582 4.81117 5.13814e-19)
(2.6512 4.94696 2.86646e-18)
)
;

boundaryField
{
    wall-4
    {
        type            noSlip;
    }
    velocity-inlet-5
    {
        type            fixedValue;
        value           uniform (5 0 0);
    }
    velocity-inlet-6
    {
        type            fixedValue;
        value           uniform (0 5 0);
    }
    pressure-outlet-7
    {
        type            zeroGradient;
    }
    wall-8
    {
        type            noSlip;
    }
    frontAndBackPlanes
    {
        type            empty;
    }
}


// ************************************************************************* //
