/*--------------------------------*- C++ -*----------------------------------*\
| =========                 |                                                 |
| \\      /  F ield         | OpenFOAM: The Open Source CFD Toolbox           |
|  \\    /   O peration     | Version:  4.0                                   |
|   \\  /    A nd           | Web:      www.OpenFOAM.org                      |
|    \\/     M anipulation  |                                                 |
\*---------------------------------------------------------------------------*/
FoamFile
{
    version     2.0;
    format      ascii;
    class       volVectorField;
    location    "3";
    object      U;
}
// * * * * * * * * * * * * * * * * * * * * * * * * * * * * * * * * * * * * * //

dimensions      [0 1 -1 0 0 0 0];

internalField   nonuniform List<vector> 
918
(
(4.98416 -0.0005118 0)
(0.00511093 4.96573 0)
(-0.00688953 6.16759 0)
(4.9789 0.00157321 0)
(0.00353877 6.13207 6.74427e-21)
(-0.00697788 4.94782 -3.28482e-17)
(4.27207 6.05871 1.02552e-17)
(2.85902 1.47901 -2.96802e-19)
(4.99992 -0.000106424 0)
(0.280626 5.59677 0)
(-0.0365384 5.70725 0)
(4.5806 -0.016677 0)
(0.0105246 4.93005 0)
(-0.0430592 4.79723 0)
(-0.0914896 6.20236 -5.08495e-18)
(0.000160039 5.98946 -7.88285e-20)
(3.49823 0.729303 1.99041e-17)
(1.00128 6.58157 7.64864e-18)
(4.96456 0.00903575 0)
(0.00441861 5.98624 0)
(1.49017 1.51212 -1.54838e-17)
(5.0014 -0.0045795 0)
(5.00013 -0.00953524 0)
(4.97324 -0.00839831 0)
(4.21749 0.060802 0)
(0.0492543 4.31752 0)
(-0.0232825 4.91529 1.47929e-17)
(-0.0131287 6.19301 0)
(-0.0191969 6.29481 0)
(-0.0161056 6.18961 0)
(0.011719 6.33601 0)
(0.0158207 6.14555 -5.80044e-21)
(0.016288 6.02927 0)
(-0.0217118 4.98733 -1.26653e-21)
(-0.0169764 5.00541 2.5043e-17)
(0.00220448 5.00043 0)
(4.87093 -0.00604773 0)
(2.02205 3.12576 4.01459e-18)
(4.60154 5.9549 -1.39642e-17)
(5.23204 5.29044 1.65875e-17)
(3.70581 6.37859 -2.08515e-18)
(3.44896 6.53718 1.222e-17)
(2.95322 1.60919 3.07804e-19)
(3.07372 1.14781 0)
(6.16956 3.14414 0)
(2.74826 1.7001 1.34091e-18)
(2.68393 1.43913 -1.49045e-18)
(4.92706 0.00529963 0)
(5.00063 0.000224724 0)
(4.99987 0.000726645 0)
(5.00419 -0.0076665 0)
(5.00061 -0.000360129 0)
(5.00008 0.000155963 0)
(0.104258 5.865 -4.39246e-18)
(0.111069 5.87055 0)
(0.465822 5.72069 0)
(0.042107 5.7539 0)
(0.146678 5.51829 0)
(-0.00656031 6.09959 0)
(-0.0750183 5.8973 0)
(-0.0377124 5.62654 0)
(-0.0690482 5.96506 0)
(-0.0348037 5.80266 0)
(4.96774 0.00899409 0)
(4.74967 0.0404513 0)
(4.65034 -0.0194723 0)
(4.67817 0.0526633 0)
(4.51548 -0.00390813 0)
(0.0146328 5.0001 1.27984e-17)
(0.012007 5.00665 0)
(0.00634491 5.0034 0)
(0.0136297 4.99693 1.54009e-22)
(0.00805678 4.95819 -1.87436e-17)
(0.0148147 4.98208 0)
(0.00955829 4.90552 0)
(0.0379348 4.89989 4.00757e-23)
(-0.0147107 4.82812 0)
(0.0556841 4.85721 0)
(-0.0746074 4.73106 0)
(0.886573 7.20909 0)
(-0.236777 7.50289 0)
(0.396285 6.35541 4.77048e-18)
(0.0648235 5.60034 0)
(0.0362008 6.22078 0)
(-0.000814241 6.12441 7.77439e-20)
(-0.00292273 5.9934 -1.62323e-19)
(3.63712 0.707996 -7.01918e-18)
(3.65686 0.463749 -6.2683e-18)
(3.43048 1.03125 -1.92768e-17)
(3.36969 0.815332 -1.30268e-17)
(0.818221 4.82963 0)
(1.37392 6.96417 -8.60214e-18)
(1.751 6.94613 1.37293e-17)
(4.98755 0.0137187 0)
(4.9449 0.012198 0)
(5.0003 0.00110986 0)
(5.00202 0.0100405 0)
(5.00208 0.010806 -3.82545e-17)
(4.99108 0.00967206 2.70309e-17)
(-0.0108898 6.11065 0)
(0.00184666 5.97959 0)
(-0.0126189 6.19255 0)
(-0.0133956 6.14068 0)
(0.00419032 6.00799 0)
(1.92325 1.71581 5.06622e-18)
(2.04574 1.54419 0)
(4.99312 -0.00664899 0)
(4.95128 -0.00528438 0)
(4.60258 0.0473938 0)
(4.44641 0.0778543 0)
(4.4065 0.0694369 0)
(5.48042 -0.0869292 0)
(4.18618 0.171169 0)
(3.92198 -0.0816362 2.81943e-17)
(-0.00623504 4.99177 1.47642e-17)
(0.102587 4.80871 0)
(0.191432 4.75574 0)
(-0.0880273 4.60034 0)
(-0.00566421 4.98792 1.49051e-17)
(-0.0281407 4.91445 0)
(-0.0126765 4.98913 -4.42958e-17)
(-0.0181773 4.92603 1.48294e-17)
(-0.0132538 6.34672 0)
(-0.00321108 6.32972 0)
(0.00347546 6.13361 -2.22291e-21)
(0.0120215 6.12276 0)
(0.00768643 5.99825 0)
(4.93365 -1.55664e-07 0)
(4.86279 -0.00613607 0)
(4.79801 0.0274808 0)
(4.93184 0.00202125 0)
(4.89486 6.36575e-05 0)
(2.19048 3.97582 -5.00245e-18)
(2.17236 3.58079 0)
(1.96602 3.76293 6.1296e-19)
(1.88649 2.83434 0)
(4.90164 5.35434 -4.08439e-18)
(5.46023 4.80216 7.86717e-18)
(2.09852 6.99052 0)
(2.90203 6.78097 0)
(2.62352 6.87086 0)
(1.71673 2.84672 -3.86954e-18)
(3.053 1.38695 0)
(3.13227 1.19336 3.58845e-18)
(5.56791 4.46773 0)
(5.74983 3.75207 0)
(6.04574 3.6173 -7.74199e-18)
(6.29407 2.8962 0)
(6.52534 2.17444 1.32665e-18)
(4.95032 0.000773245 0)
(4.96195 0.00125481 0)
(4.91088 0.0038113 0)
(4.98647 -0.00538492 0)
(4.98253 0.00132507 0)
(4.94562 0.00125036 0)
(5.0004 0.00351916 0)
(5.00087 0.00157108 0)
(5.00003 0.0010143 0)
(0.0761807 5.91025 2.41584e-18)
(0.191543 5.70985 0)
(0.019794 6.03713 4.1563e-18)
(0.024421 5.92895 -3.52975e-18)
(0.718056 6.47067 -6.46256e-18)
(0.188182 5.996 0)
(0.507007 6.06214 0)
(0.00410571 5.74661 0)
(0.0764793 5.5046 0)
(-0.00582348 6.18455 -8.21783e-21)
(0.0202179 6.0889 0)
(-0.0231138 6.20251 -3.83494e-19)
(-0.0234026 6.08897 7.2414e-19)
(-0.0444491 5.74477 0)
(-0.0797172 5.81565 0)
(-0.00557086 5.54514 0)
(-0.0608493 6.03427 0)
(-0.0248434 5.86599 0)
(5.07068 0.0524664 0)
(5.03298 0.0372745 0)
(5.01645 0.0305841 0)
(4.93048 0.00685959 0)
(4.67478 -0.0349813 0)
(4.82101 -0.000433042 0)
(4.78426 0.0265955 0)
(4.66602 -0.0323823 0)
(0.0150527 5.06337 -1.46063e-19)
(0.00715482 5.05946 0)
(0.0171024 4.97014 0)
(0.00667817 4.87873 0)
(2.26787 8.42211 0)
(3.01166 7.33666 2.21963e-18)
(0.223925 5.73732 0)
(0.0442007 5.23353 0)
(-0.00394178 6.31732 0)
(0.0244578 6.23035 0)
(0.0209345 6.24468 0)
(0.0210377 6.3041 1.69385e-20)
(0.0426458 6.23327 0)
(0.0303408 6.26593 0)
(-0.0155789 6.02414 3.97219e-20)
(-0.0157448 6.16657 1.9578e-19)
(-0.00866607 6.13006 1.65929e-19)
(-0.0153855 5.99983 0)
(3.72969 0.600399 9.14592e-18)
(3.75593 0.288057 -9.56398e-18)
(0.725841 4.91619 0)
(1.06811 4.5519 -2.34104e-18)
(0.522467 5.13483 -6.9651e-18)
(0.597075 5.04303 6.99708e-18)
(4.89361 0.0167315 0)
(4.96102 0.0243512 0)
(4.97288 0.0195501 0)
(4.92119 0.0103382 0)
(-0.0401641 6.06951 0)
(-0.0187722 6.10482 0)
(-0.00288281 5.93506 0)
(2.55171 1.76321 1.31596e-17)
(2.26005 1.82781 -1.55166e-17)
(2.44863 1.49064 0)
(5.94465 0.466401 2.93828e-19)
(6.02644 0.118094 0)
(5.55418 0.179527 0)
(5.23407 0.031987 0)
(3.80056 0.348454 0)
(3.93874 0.253011 -4.47498e-17)
(3.78107 0.115403 1.71724e-17)
(0.0378936 5.04373 1.39198e-17)
(-0.0330806 4.94503 1.88006e-19)
(0.0102592 5.05393 -2.9552e-19)
(0.0133822 5.04328 1.0541e-17)
(-0.0146318 4.99801 4.72566e-19)
(-0.0124314 4.94808 -1.88038e-21)
(-0.0172928 5.01298 -8.31178e-18)
(0.0138164 5.02592 6.11562e-18)
(0.00619221 5.03704 -1.0537e-17)
(4.98455 0.0262753 0)
(4.94847 0.0129581 0)
(4.8876 0.00648148 0)
(4.94044 0.0354761 0)
(4.92011 0.0509471 0)
(4.85939 0.0183693 0)
(4.83895 0.0156549 0)
(4.88007 0.0490551 0)
(4.71329 -0.0108188 0)
(2.39509 4.29379 -4.28042e-18)
(2.24631 4.18253 0)
(1.70589 2.59654 1.11709e-18)
(1.69066 3.56472 8.62803e-18)
(1.80002 3.62258 -5.18724e-18)
(1.76529 2.65234 9.98023e-18)
(1.51113 3.71902 1.87431e-17)
(1.70125 3.19275 3.79324e-18)
(3.344 1.03698 1.49639e-17)
(3.18476 1.27997 3.31498e-18)
(3.2487 1.10662 6.80111e-18)
(6.34614 2.2235 3.75711e-18)
(6.52829 1.60622 3.74655e-18)
(-0.0173072 6.04219 1.71076e-18)
(0.0360005 5.96264 0)
(5.29808 0.106202 0)
(5.16135 0.063076 0)
(5.11429 0.024168 0)
(0.00245675 5.07525 0)
(0.0308682 4.93301 2.10357e-17)
(0.022535 4.95538 0)
(0.000417667 4.85451 -2.06767e-17)
(0.00218772 5.08823 5.47891e-18)
(0.0170639 5.08231 0)
(2.44373 4.64295 2.38327e-19)
(3.13465 5.8886 -8.32923e-19)
(2.34188 4.90282 -2.16122e-18)
(0.0875543 5.15345 -1.36156e-17)
(0.135239 5.3621 0)
(0.0372713 5.0828 0)
(-0.0265346 6.18057 -4.38716e-20)
(-0.0222713 6.17484 -5.02386e-19)
(-0.0163439 6.05194 -3.24872e-20)
(0.97901 4.6223 7.19276e-18)
(1.28671 4.27151 -5.65182e-18)
(0.166191 5.72256 4.31041e-18)
(0.319866 5.43592 -5.69231e-18)
(0.35652 5.37361 7.65248e-19)
(0.0306938 5.11372 -3.10428e-17)
(0.0412992 5.11433 3.20754e-17)
(0.00428708 4.98882 1.4838e-17)
(0.0119979 5.00317 -1.48537e-17)
(-0.0298676 4.92546 -1.51084e-17)
(0.0198627 5.09526 -3.44904e-17)
(0.0185518 5.09412 3.21111e-17)
(1.55863 3.56639 0)
(1.60388 3.52501 -1.84783e-17)
(1.69378 2.67038 8.23082e-18)
(1.40701 3.91034 1.08054e-17)
(1.59719 3.52842 -1.68545e-17)
(6.36024 0.870481 1.50991e-19)
(6.47408 1.30796 0)
(6.48026 0.622716 1.21928e-18)
(0.0176946 6.15598 -1.18285e-20)
(0.0144519 6.0971 0)
(0.0357828 6.0301 0)
(1.16684 4.36898 -2.8856e-18)
(1.29822 4.12008 -6.88209e-18)
(1.47614 3.91017 1.25892e-17)
(5.00792 -0.0119956 0)
(5.00781 -0.00675857 7.67407e-18)
(-0.0110938 6.34165 0)
(-0.0197331 6.34799 0)
(5.00282 0.00435401 8.8945e-21)
(5.00291 0.00894717 1.51953e-17)
(0.0164853 6.30191 -1.93993e-20)
(0.0116271 6.31136 0)
(0.277202 5.4416 1.2829e-17)
(1.15157 6.49085 0)
(5.13857 3.40812 -4.44278e-19)
(5.00532 0.0125561 -9.53338e-21)
(5.0126 -0.0310303 0)
(5.00102 0.00294455 4.69546e-21)
(0.168132 6.61953 0)
(0.227581 6.13817 0)
(-0.0629989 6.3609 0)
(0.0477479 6.31139 5.10855e-19)
(0.00223306 6.33081 2.16528e-19)
(4.93632 0.0592418 8.3941e-20)
(5.12293 0.0746453 0)
(5.26024 0.117779 0)
(0.00741949 6.2529 0)
(-0.00109221 6.32137 0)
(-0.0214417 6.32834 0)
(0.928246 7.07924 -4.24392e-18)
(5.00927 -0.0106252 0)
(5.0157 -0.0113888 0)
(5.00411 0.00300071 8.5918e-18)
(5.00656 -0.00386355 -1.09271e-17)
(5.00107 -0.000617609 0)
(-0.0198878 6.28494 0)
(-0.00963829 6.33147 0)
(-0.00975459 6.30925 0)
(-0.0162403 6.32967 0)
(-0.0140639 6.32892 0)
(-0.0182737 6.3334 0)
(5.01332 0.0113242 0)
(5.01682 0.0349663 9.29543e-21)
(3.48822 6.11487 7.44587e-18)
(5.00179 0.00289681 -8.20746e-18)
(5.00361 0.00448531 1.08689e-17)
(5.001 0.00332636 0)
(5.00553 0.0120014 8.45683e-18)
(5.00525 0.0111406 -1.01627e-17)
(5.00532 0.0104592 0)
(0.00411869 6.32072 0)
(0.0122404 6.30852 5.59244e-20)
(0.0112625 6.31441 -4.88093e-20)
(5.74733 1.32221 7.09906e-18)
(5.46553 0.394741 0)
(0.459393 4.91345 -2.27237e-17)
(0.266689 4.66412 -1.50553e-18)
(0.701067 5.40021 2.94183e-17)
(0.553109 5.55678 -8.59736e-18)
(0.600021 5.69735 0)
(0.13624 5.20245 5.67054e-18)
(0.373821 5.24428 2.26193e-17)
(0.378199 5.38738 -1.09261e-17)
(0.167794 5.04647 0)
(3.53039 1.77406 0)
(3.16232 1.99488 0)
(5.22558 3.52506 3.96941e-19)
(4.93054 4.25632 6.69403e-19)
(5.43971 2.82838 0)
(5.50546 2.78549 0)
(5.00937 0.0126003 -1.70893e-17)
(5.00644 0.0132216 1.86485e-17)
(5.00904 -0.0379912 0)
(4.99563 -0.0382122 0)
(5.00901 0.00583585 0)
(5.01193 0.00727695 0)
(5.00234 0.00677889 0)
(5.00675 0.0126202 0)
(5.00527 0.00826696 0)
(5.00313 0.00791615 0)
(0.144943 6.59327 0)
(0.046506 6.58712 0)
(0.313952 6.78106 0)
(0.204778 6.83948 0)
(0.261262 6.10197 0)
(0.285974 6.11002 -2.69504e-18)
(0.173978 6.23115 0)
(0.109761 6.23648 1.38581e-18)
(0.0980371 6.30381 -1.17727e-18)
(-0.0628034 6.36241 0)
(-0.0585319 6.36152 0)
(-0.0581618 6.37358 0)
(-0.057741 6.4105 0)
(0.0230981 6.32462 -2.30857e-19)
(-0.00117355 6.33087 2.39951e-19)
(0.0219344 6.32286 4.17569e-19)
(0.0059413 6.33033 0)
(-0.00804957 6.34345 -4.64627e-19)
(-0.011118 6.34158 -2.84257e-19)
(0.0228685 6.33323 1.86072e-19)
(0.00151461 6.33007 -3.76578e-19)
(0.00997576 6.3334 -4.91413e-19)
(4.96539 0.0776108 1.68372e-17)
(4.97048 0.0379133 -2.08644e-17)
(4.93762 0.0919251 -1.83237e-17)
(4.89544 0.0730026 2.40216e-17)
(5.08944 0.0731998 0)
(5.10056 0.0441734 0)
(5.19024 0.167408 0)
(5.11686 0.0892411 0)
(5.19258 0.06198 0)
(5.4235 0.351465 0)
(5.2822 0.226225 0)
(5.35463 0.172709 0)
(0.0310052 6.2545 -6.1719e-21)
(0.00509821 6.23368 0)
(0.0202516 6.24106 0)
(-0.0141526 6.33072 7.76095e-20)
(-0.0158808 6.33164 -3.75457e-21)
(-0.0350834 6.26298 5.25399e-20)
(-0.0191172 6.29172 -5.15561e-20)
(-0.0237265 6.31985 0)
(-0.0186271 6.32299 0)
(-0.0193547 6.32106 0)
(-0.0198078 6.33059 0)
(-0.0255296 6.34356 0)
(1.5321 7.1155 6.41342e-18)
(1.50819 7.16535 2.9309e-18)
(1.19132 5.58809 -2.00795e-18)
(0.606187 5.7958 4.90275e-18)
(1.11063 5.85822 1.08787e-18)
(5.01686 -0.017879 0)
(5.02419 -0.00806091 0)
(5.02172 -0.0194609 0)
(5.014 0.000220688 0)
(5.00533 0.000166677 0)
(5.00755 -0.00355853 0)
(5.01176 -0.00570926 0)
(5.00966 -0.00429767 0)
(5.01272 0.0327221 1.55351e-17)
(4.98968 0.0309433 -2.22545e-17)
(5.02337 0.0330688 -1.66907e-17)
(5.02194 0.0369633 1.82768e-17)
(3.47792 6.19686 0)
(2.90324 6.62429 6.36442e-18)
(4.0872 5.74357 3.05656e-18)
(4.11586 5.76147 -4.1011e-18)
(3.1087 5.56455 1.55086e-17)
(4.14838 0.591961 1.067e-17)
(5.48465 0.437875 0)
(5.69851 0.840462 -5.25641e-18)
(5.58986 0.76676 -2.23732e-19)
(4.76008 0.615078 0)
(0.900769 5.24216 1.5212e-17)
(0.789185 4.71139 -2.78382e-17)
(0.563988 3.41569 1.72243e-17)
(1.08397 1.64992 -7.63077e-18)
(0.981449 6.37719 5.90693e-18)
(0.657709 6.01499 0)
(0.733996 6.15681 -7.69074e-18)
(1.10868 5.41455 -4.02738e-17)
(1.26428 5.78388 0)
(0.0592004 5.10488 9.86836e-19)
(0.0841632 5.12164 -1.0618e-17)
(0.0586528 5.09607 1.6248e-17)
(0.186402 5.15074 0)
(0.19141 5.20748 0)
(3.39954 5.70439 0)
(2.66898 4.00373 -8.46939e-18)
(4.60349 5.11741 -1.06945e-18)
(4.6622 5.17749 0)
(4.05257 4.5052 -1.04833e-18)
(4.96861 4.33153 4.88023e-19)
(2.07947 2.27533 -1.98309e-17)
(3.60326 1.64937 -5.87957e-19)
(3.54572 1.56399 7.8348e-18)
(3.13293 2.20065 6.373e-19)
(2.83429 2.12696 -2.58622e-17)
(3.49701 1.82218 0)
(3.45899 2.15111 1.33088e-17)
(3.44093 2.11455 0)
(3.35947 2.05376 0)
(3.40523 1.84324 0)
(3.62965 2.9824 6.75791e-18)
(5.72516 1.35074 -6.14926e-18)
(5.7121 2.05832 0)
(5.66112 2.025 0)
(3.81305 1.17472 1.19086e-17)
(3.81084 2.55161 -6.86901e-18)
(3.4311 2.44058 1.18631e-17)
(4.34075 2.00363 -1.30898e-17)
(4.99872 0.0238136 1.18843e-17)
(5.00668 0.0168538 -1.07179e-17)
(4.99137 0.0135946 0)
(5.00396 0.00257489 0)
(5.00028 -0.0281064 -1.0221e-17)
(4.97307 -0.0319658 1.06069e-17)
(5.05875 0.0256117 0)
(5.0366 0.0367617 0)
(5.0132 0.0109362 0)
(5.01488 0.0147512 0)
(5.03116 0.00549263 0)
(5.02219 -0.00171128 0)
(0.0377133 6.57268 0)
(0.0190942 6.53851 0)
(0.531146 6.65297 1.0141e-18)
(0.892894 7.02675 2.08183e-18)
(0.399643 7.01736 4.50018e-18)
(0.459987 7.05269 -7.27239e-18)
(0.602575 6.73664 0)
(0.497175 6.24591 -2.62891e-19)
(0.450948 6.22917 0)
(1.02434 5.86647 -1.60996e-18)
(0.802775 5.82803 5.4288e-18)
(0.672187 6.31157 2.26929e-19)
(0.894418 6.6184 9.40562e-19)
(0.786271 6.64757 -7.73795e-19)
(1.18985 6.27957 -3.0496e-19)
(0.881977 6.09824 0)
(0.933815 6.0752 5.25043e-19)
(0.0482506 6.3041 -2.36337e-19)
(0.0760409 6.26776 0)
(0.126238 6.22348 1.46919e-18)
(0.112701 6.2606 0)
(0.0855729 6.24114 -1.51955e-18)
(0.0499373 6.26043 0)
(-0.00140794 6.31562 2.53574e-21)
(0.0531748 6.32629 0)
(0.0271418 6.38487 0)
(-0.019745 6.3254 -3.05555e-21)
(0.0465166 6.31087 -3.40869e-20)
(0.0751924 6.31884 1.28599e-18)
(0.0681893 6.31396 7.88491e-21)
(-0.0195129 6.29513 1.48005e-19)
(-0.0103454 6.29959 7.1319e-20)
(-0.0577911 6.3627 0)
(-0.0504631 6.36242 0)
(0.0996957 6.27861 5.73532e-19)
(0.101404 6.36034 2.29804e-19)
(0.0852541 6.3094 -4.13995e-19)
(0.136572 6.28918 0)
(-0.0303881 6.28321 -2.85397e-19)
(-0.0235153 6.31676 1.32539e-19)
(-0.0293851 6.31596 -4.1937e-20)
(-0.0165967 6.28827 -2.02847e-19)
(-0.0196832 6.32928 -5.61183e-20)
(-0.0140224 6.33032 3.07318e-19)
(5.02292 0.0338602 -9.88815e-18)
(5.00361 0.0459827 1.1044e-17)
(5.00863 0.0310832 0)
(4.90703 0.208216 1.58287e-17)
(4.89719 0.148657 -1.93123e-17)
(4.78762 0.142232 2.18842e-17)
(4.86682 0.396108 -2.18894e-18)
(5.01594 0.0233963 0)
(5.05273 0.0465402 1.10623e-17)
(5.03919 0.022687 -9.92753e-18)
(5.06706 0.181908 -6.29702e-19)
(5.07643 0.110368 5.31082e-18)
(5.03376 0.246619 0)
(5.01856 0.201175 -2.04092e-18)
(5.00366 0.103419 0)
(5.00044 0.0965474 0)
(5.06117 0.031264 0)
(5.03604 0.0307246 0)
(5.03308 0.0945345 4.02368e-18)
(5.04448 0.0779945 -8.76467e-18)
(5.04382 0.134247 -3.90439e-18)
(5.04631 0.133617 -4.52747e-18)
(5.02394 0.24487 8.22777e-18)
(5.19402 0.234758 0)
(5.13243 0.424289 0)
(-0.0271181 6.27474 -8.10033e-20)
(-0.0265335 6.25175 -8.07156e-21)
(-0.0296523 6.25906 0)
(-0.00894483 6.29492 6.9564e-20)
(-0.00272125 6.27636 1.36384e-20)
(-0.00599191 6.28949 -8.24692e-21)
(-0.0168124 6.34389 2.58515e-19)
(-0.0242123 6.3307 -1.34489e-20)
(-0.0231083 6.32789 5.75135e-20)
(-0.0194155 6.33721 -1.13462e-19)
(-0.0167001 6.3393 1.30731e-19)
(-0.0338789 6.29426 -3.74619e-21)
(-0.0407264 6.26575 8.92085e-20)
(1.61617 6.47487 -3.22516e-18)
(1.27466 6.30161 -6.34483e-20)
(2.89699 6.74901 -6.14967e-18)
(2.19884 7.06135 -3.2503e-18)
(2.25795 7.05835 0)
(1.34738 5.56067 1.63412e-18)
(1.4123 5.59576 2.40508e-18)
(0.805227 5.71935 4.49012e-19)
(0.810201 5.69488 -5.71544e-18)
(1.04704 5.66757 4.46285e-18)
(1.12727 5.66249 0)
(0.842554 5.74074 -3.68014e-18)
(0.388416 5.9668 6.89705e-18)
(0.572216 5.8691 -5.19018e-19)
(0.353364 6.00007 -9.93781e-18)
(2.35661 5.58344 1.06906e-17)
(1.9761 5.60126 0)
(5.01228 0.000935003 3.181e-19)
(5.00977 -0.00494435 -2.86999e-19)
(5.00588 -0.013876 -5.06364e-18)
(5.01504 -0.0185253 4.97236e-18)
(5.02601 -0.00637323 0)
(3.09212 5.80281 0)
(3.15805 5.24344 0)
(3.63287 4.95948 0)
(3.15109 5.13984 0)
(3.07752 5.59525 -2.48724e-19)
(3.02845 5.57404 0)
(2.43072 5.28573 6.63874e-20)
(1.84064 5.58636 0)
(2.06481 5.44778 -7.644e-18)
(2.17784 5.57583 4.63847e-18)
(4.10536 0.654475 0)
(3.969 0.814041 3.12911e-18)
(4.43118 0.620291 1.62313e-17)
(4.26778 0.496724 -6.29474e-18)
(4.25522 0.41158 -1.92044e-17)
(5.00729 1.06592 -1.24394e-17)
(4.64132 1.24825 -3.47451e-19)
(4.36882 1.30648 1.47181e-17)
(4.72905 0.980544 1.23514e-17)
(4.53258 0.790864 -2.1404e-17)
(4.37176 0.867168 2.71991e-18)
(4.49541 1.1963 -5.71067e-18)
(4.38044 0.951462 0)
(4.78328 0.814658 1.06429e-17)
(4.89401 0.808058 0)
(4.89209 0.929036 0)
(5.19511 0.4641 4.17103e-18)
(4.94686 0.721939 -2.39808e-19)
(4.94608 1.08934 -2.37165e-18)
(5.14746 0.889585 0)
(4.97424 0.109476 9.17082e-18)
(4.99697 0.198456 1.191e-17)
(4.99471 0.122798 -9.76417e-18)
(4.96764 0.214775 -7.8031e-18)
(4.92042 0.227638 -1.12387e-17)
(4.79134 0.623819 0)
(4.83719 0.378539 0)
(4.76674 0.216442 -8.14004e-18)
(4.58364 0.291818 3.0754e-18)
(4.89304 0.383463 1.09195e-17)
(4.97022 0.469821 -1.23484e-17)
(5.0048 0.63303 1.19192e-17)
(4.91151 0.56632 0)
(5.04251 0.418323 0)
(4.97822 0.353532 -5.28943e-18)
(4.97873 0.351682 -9.16995e-18)
(2.73382 4.91011 2.27076e-18)
(2.49051 5.03898 -2.80084e-18)
(2.80424 5.41593 -4.33486e-18)
(2.97756 5.92097 7.71071e-19)
(3.14296 5.72353 -9.67346e-18)
(3.37096 5.75979 4.59476e-18)
(3.42402 5.56293 -2.31224e-19)
(3.00782 5.87138 -3.79779e-18)
(2.94149 5.86601 6.43263e-18)
(3.0538 6.34633 9.26084e-19)
(3.43499 6.11506 -1.15912e-18)
(3.55047 6.08995 0)
(2.83017 4.07465 -6.77135e-19)
(1.61863 3.28129 8.2459e-18)
(2.03147 2.73967 1.2794e-17)
(1.44497 2.59904 1.52126e-17)
(2.77746 2.31015 1.42139e-17)
(2.76678 2.56527 -2.32448e-17)
(2.49565 2.67902 1.87515e-17)
(2.37305 2.46263 -7.53717e-18)
(2.50231 2.12058 1.67306e-17)
(3.85726 1.29678 -6.83177e-18)
(3.68291 1.48919 0)
(3.72735 1.4216 3.53747e-19)
(3.3976 2.55683 7.07063e-18)
(3.2381 2.45305 -2.47192e-17)
(2.91799 2.59547 6.87639e-19)
(3.21942 2.40406 0)
(3.23751 3.5476 5.95387e-18)
(3.77755 3.6801 6.14448e-18)
(3.51207 3.981 -7.41639e-18)
(3.97851 3.84661 -2.32253e-18)
(4.35594 3.98411 -4.0366e-19)
(4.35047 4.08085 4.09296e-19)
(3.87646 3.09653 -1.10109e-17)
(4.29852 3.40204 2.12341e-18)
(4.66575 3.43719 0)
(4.67418 3.27409 -2.68635e-18)
(4.75449 1.53171 3.53336e-18)
(5.3063 1.39396 3.96567e-18)
(4.92908 1.27146 5.6607e-18)
(4.61038 1.64083 -7.08889e-18)
(4.84147 1.97533 0)
(5.2053 1.89387 0)
(4.30427 1.65849 4.54025e-20)
(4.09283 1.36529 0)
(4.07931 1.29416 7.07402e-18)
(4.32845 1.31847 -2.5724e-20)
(4.31586 2.03364 3.74366e-17)
(4.07517 2.30749 8.9291e-18)
(4.11613 2.13919 -1.00304e-17)
(3.87313 2.06489 1.05715e-17)
(3.77331 2.02965 6.39812e-18)
(3.78722 2.01631 -6.53116e-18)
(5.02072 -0.0199591 9.34704e-18)
(5.04842 -0.0152734 0)
(5.03796 -0.0240668 6.02577e-18)
(5.02236 -0.0286892 -1.3082e-17)
(5.07019 0.00735905 6.92297e-18)
(5.05536 0.0234547 -1.45752e-17)
(5.03593 0.0365164 0)
(5.02261 0.0417021 -2.94718e-18)
(5.03307 0.0116291 7.43232e-18)
(5.02445 0.0288819 -3.78383e-18)
(5.02811 0.0317194 2.85156e-18)
(-0.0161332 6.43912 0)
(0.0192222 6.38107 0)
(0.0290153 6.52497 0)
(-0.0104014 6.46478 0)
(0.155158 6.46738 -9.12449e-19)
(0.193248 6.5266 2.59028e-19)
(0.27149 6.29923 -1.06651e-20)
(0.311732 6.46521 -8.33334e-19)
(0.122445 6.39473 1.04042e-19)
(0.115736 6.4027 -1.01943e-19)
(0.145682 6.48849 -3.04863e-19)
(0.0795072 6.50722 7.92461e-19)
(0.0781922 6.48025 1.20523e-19)
(0.062836 6.4487 3.60324e-20)
(0.155677 6.22426 -1.58703e-18)
(0.224016 6.20642 0)
(0.313903 6.13687 1.1308e-18)
(0.374152 6.21899 5.07397e-19)
(0.694835 6.02112 -7.28412e-19)
(0.506752 5.90535 0)
(0.522436 5.8329 -5.60867e-18)
(0.743614 5.85679 4.00598e-18)
(0.615854 6.09734 -1.93475e-18)
(0.421843 6.0997 1.12833e-18)
(0.260062 6.00401 0)
(0.055252 6.28971 -8.4338e-19)
(0.029389 6.30485 -9.90045e-19)
(0.0402776 6.31144 0)
(0.0582768 6.31314 -4.13932e-20)
(0.0525421 6.30523 3.81337e-19)
(-0.0478851 6.31 3.39138e-21)
(-0.0582645 6.31812 -1.90762e-19)
(-0.0499846 6.28285 7.91222e-21)
(-0.0368349 6.26048 1.15935e-19)
(-0.0138431 6.3038 0)
(-0.0392473 6.2797 0)
(-0.029156 6.34486 3.4823e-20)
(-0.0246654 6.28685 -1.34697e-20)
(-0.0394183 6.28578 0)
(-0.0461898 6.35817 2.12971e-20)
(-0.0383521 6.3561 -4.62037e-20)
(5.04595 0.0745387 0)
(5.05189 0.0723574 -9.07173e-19)
(5.05924 0.0776538 -7.36929e-18)
(5.05718 0.0885067 0)
(5.05133 0.102401 0)
(5.06481 0.0567472 -9.16708e-20)
(5.06506 0.0529652 1.12343e-17)
(5.04319 0.0477504 1.44224e-17)
(5.03487 0.0379318 0)
(5.01743 0.0370598 0)
(5.03177 0.0733648 7.28666e-18)
(5.01253 0.0585962 0)
(5.01965 0.0509369 0)
(-0.0401404 6.27644 0)
(-0.0406999 6.25629 1.33863e-20)
(-0.0390618 6.25637 6.12645e-20)
(-0.0285962 6.28679 0)
(-0.0386189 6.27088 6.77276e-20)
(-0.0307944 6.28753 -2.64287e-20)
(-0.0206715 6.28881 0)
(1.72402 5.74202 0)
(1.31514 6.12719 -4.17708e-19)
(1.22124 5.89121 0)
(1.82831 6.06922 -8.5235e-19)
(2.08241 6.5177 0)
(1.87606 6.44567 9.54594e-19)
(2.27743 5.68614 -2.13237e-19)
(2.41618 5.61129 -1.05636e-17)
(2.53776 5.6207 1.2598e-17)
(2.06034 5.58753 2.21578e-18)
(1.88139 5.52785 0)
(2.06913 5.41698 0)
(2.28903 5.61194 0)
(2.23583 5.63835 -8.15071e-18)
(1.53939 5.74852 -4.91236e-18)
(1.7631 5.52662 -1.23478e-18)
(1.84049 5.57412 8.04693e-19)
(1.58808 5.56223 0)
(1.87692 5.61467 0)
(1.7115 5.59837 -2.75394e-18)
(1.6733 5.63927 0)
(3.0772 4.8449 0)
(2.75816 4.4647 -6.46199e-18)
(2.76038 4.5138 -3.7775e-19)
(2.77475 4.74235 0)
(2.81431 4.66304 1.00398e-17)
(3.63996 4.12705 -1.66996e-18)
(3.72966 4.70954 0)
(3.63579 4.60431 1.8474e-18)
(3.2557 4.62114 0)
(3.17465 4.3679 0)
(2.80507 5.52528 -5.14865e-18)
(2.75098 5.49614 -3.13117e-18)
(2.58568 5.20344 5.16505e-18)
(2.56204 5.27832 -1.77982e-18)
(2.80382 5.63868 0)
(2.67742 5.57695 2.22191e-18)
(2.95411 5.59724 -3.32889e-18)
(2.86271 5.59543 -1.97346e-19)
(2.36286 5.20804 0)
(2.47588 5.15042 -1.99143e-18)
(2.62715 5.22642 0)
(4.13981 1.06703 0)
(3.99213 0.877151 0)
(3.89047 1.06291 0)
(4.06856 1.09056 -1.16547e-17)
(3.86573 1.07407 6.40648e-18)
(4.58139 0.282911 -5.21686e-18)
(4.60864 0.507731 0)
(4.53979 0.530805 3.13229e-18)
(4.38964 0.327901 1.08192e-17)
(4.41456 0.324372 -6.73378e-18)
(2.99385 6.624 1.09514e-18)
(3.04647 6.38458 0)
(2.97776 6.57267 3.55893e-18)
(1.73016 6.78605 -3.71024e-18)
(2.39291 5.51365 -5.41713e-18)
(2.59968 4.15123 8.38864e-18)
(2.74569 4.34569 0)
(2.40515 3.4788 -2.61259e-18)
(2.43883 3.54268 1.34474e-17)
(2.09675 3.10586 -4.12648e-18)
(2.59851 2.91559 4.19358e-18)
(3.08981 2.75069 9.22992e-18)
(3.20578 2.79506 0)
(2.94684 3.25246 0)
(2.70481 2.99489 0)
(4.61096 2.77598 8.44956e-19)
(4.12323 2.57126 -9.02167e-18)
(4.31021 2.77494 5.89104e-18)
(4.46419 2.36763 -6.84599e-18)
(4.82547 2.24501 0)
(4.99862 2.66747 -1.47374e-18)
(4.07652 1.80477 -1.47658e-17)
(4.05977 1.72801 -1.89221e-17)
(4.00369 1.80833 1.18459e-17)
(3.94396 1.64694 -1.25987e-17)
(4.05761 1.43152 -8.88925e-18)
(3.93088 1.4592 1.14279e-17)
(5.07418 0.0124108 -7.64635e-18)
(5.07648 0.0144985 1.43456e-17)
(5.02818 0.00859541 8.38024e-18)
(5.04206 0.013512 -9.58896e-18)
(5.05028 0.0664523 0)
(5.06915 0.0528143 -1.71545e-17)
(0.163851 6.28802 1.43932e-19)
(0.137272 6.30074 0)
(0.236438 6.22456 1.16914e-18)
(0.288469 6.26011 -1.00956e-18)
(0.189251 6.30423 2.03093e-20)
(0.162828 6.29804 0)
(-0.0304567 6.27816 0)
(-0.0367032 6.27272 -3.57389e-20)
(-0.0402285 6.26733 2.76328e-20)
(-0.0375081 6.26887 8.72538e-21)
(-0.0357503 6.27802 -7.81331e-20)
(-0.0348799 6.28379 5.13242e-20)
(2.19135 5.30737 -6.92239e-18)
(2.02756 5.40992 7.34627e-18)
(1.85753 5.91497 -7.49206e-19)
(1.94693 5.61145 2.66256e-19)
(2.99016 5.88438 0)
(2.45274 6.31281 3.21256e-18)
(2.62801 6.22381 -3.09047e-18)
(2.10912 5.95642 7.70172e-19)
(2.45844 5.57916 0)
(2.57588 5.56623 0)
(1.50165 5.64392 7.46179e-18)
(1.45493 5.54677 1.20014e-17)
(1.60307 5.6179 -8.31209e-18)
(1.35041 5.5395 -1.58406e-18)
(1.28776 5.7655 2.40158e-18)
(1.0318 5.64585 -6.11202e-18)
(2.61116 5.60619 -7.10162e-18)
(2.75955 5.61218 0)
(2.69756 5.61161 -6.75618e-18)
(2.53468 5.58384 0)
(2.49621 5.52702 0)
(2.30481 5.01705 -5.62986e-18)
(2.6422 5.59357 -3.79357e-18)
(2.44704 5.65101 3.71957e-18)
(1.74106 3.62121 0)
(2.1731 3.78477 -4.76578e-18)
(2.47856 4.04015 -5.27292e-18)
(1.99063 4.64506 0)
(1.76007 5.08596 4.18001e-18)
(1.75624 4.87244 0)
(3.22599 3.36374 -1.30193e-17)
(3.58583 3.27126 1.84591e-17)
(3.59447 3.10306 -1.93145e-17)
(3.17025 3.24799 -1.74738e-18)
(3.38692 3.04324 -7.57316e-18)
(2.62707 5.36248 2.91274e-18)
(2.59905 5.23965 -5.68693e-18)
(2.30769 5.07543 8.83023e-18)
(2.54712 4.77162 -6.0155e-18)
(2.63248 5.00013 -6.2915e-18)
(2.69829 5.06444 -5.67144e-19)
(2.67136 5.02691 5.14108e-18)
(2.564 4.86745 4.89342e-19)
(2.5548 4.91898 2.90541e-18)
)
;

boundaryField
{
    wall-4
    {
        type            noSlip;
    }
    velocity-inlet-5
    {
        type            fixedValue;
        value           uniform (5 0 0);
    }
    velocity-inlet-6
    {
        type            fixedValue;
        value           uniform (0 5 0);
    }
    pressure-outlet-7
    {
        type            zeroGradient;
    }
    wall-8
    {
        type            noSlip;
    }
    frontAndBackPlanes
    {
        type            empty;
    }
}


// ************************************************************************* //
